
     Program PWSCF v.6.4.1 starts on 30Jun2021 at 16:46: 7 

     This program is part of the open-source Quantum ESPRESSO suite
     for quantum simulation of materials; please cite
         "P. Giannozzi et al., J. Phys.:Condens. Matter 21 395502 (2009);
         "P. Giannozzi et al., J. Phys.:Condens. Matter 29 465901 (2017);
          URL http://www.quantum-espresso.org", 
     in publications or presentations arising from this work. More details at
     http://www.quantum-espresso.org/quote

     Parallel version (MPI), running on     1 processors

     MPI processes distributed on     1 nodes
     Waiting for input...
     Reading input from standard input

     Current dimensions of program PWSCF are:
     Max number of different atomic species (ntypx) = 10
     Max number of k-points (npk) =  40000
     Max angular momentum in pseudopotentials (lmaxx) =  3
               file Pb.pbe-dn-rrkjus_psl.1.0.0.UPF: wavefunction(s)  6S 5D renormalized

     Subspace diagonalization in iterative solution of the eigenvalue problem:
     a serial algorithm will be used


     G-vector sticks info
     --------------------
     sticks:   dense  smooth     PW     G-vecs:    dense   smooth      PW
     Sum         349     169     61                 4285     1471     339


     Title: 
     Lead                                                                       


     bravais-lattice index     =            2
     lattice parameter (alat)  =       9.2226  a.u.
     unit-cell volume          =     196.1075 (a.u.)^3
     number of atoms/cell      =            1
     number of atomic types    =            1
     number of electrons       =        14.00
     number of Kohn-Sham states=           11
     kinetic-energy cutoff     =      15.0000  Ry
     charge density cutoff     =     120.0000  Ry
     convergence threshold     =      1.0E-09
     mixing beta               =       0.7000
     number of iterations used =            8  plain     mixing
     Exchange-correlation      = PBE ( 1  4  3  4 0 0)

     celldm(1)=   9.222558  celldm(2)=   0.000000  celldm(3)=   0.000000
     celldm(4)=   0.000000  celldm(5)=   0.000000  celldm(6)=   0.000000

     crystal axes: (cart. coord. in units of alat)
               a(1) = (  -0.500000   0.000000   0.500000 )  
               a(2) = (   0.000000   0.500000   0.500000 )  
               a(3) = (  -0.500000   0.500000   0.000000 )  

     reciprocal axes: (cart. coord. in units 2 pi/alat)
               b(1) = ( -1.000000 -1.000000  1.000000 )  
               b(2) = (  1.000000  1.000000  1.000000 )  
               b(3) = ( -1.000000  1.000000 -1.000000 )  


     PseudoPot. # 1 for Pb read from file:
     /home/elena/qe-6.7/pseudo/Pb.pbe-dn-rrkjus_psl.1.0.0.UPF
     MD5 check sum: 1cf8f5e18580e6a90a35f98a53d336de
     Pseudo is Ultrasoft + core correction, Zval = 14.0
     Generated using "atomic" code by A. Dal Corso v.6.3
     Using radial grid of 1281 points,  6 beta functions with: 
                l(1) =   0
                l(2) =   0
                l(3) =   1
                l(4) =   1
                l(5) =   2
                l(6) =   2
     Q(r) pseudized with 0 coefficients 


     atomic species   valence    mass     pseudopotential
        Pb            14.00   207.20000     Pb( 1.00)

     48 Sym. Ops., with inversion, found



   Cartesian axes

     site n.     atom                  positions (alat units)
         1           Pb  tau(   1) = (   0.0000000   0.0000000   0.0000000  )

     number of k points=    16  Methfessel-Paxton smearing, width (Ry)=  0.0500
                       cart. coord. in units 2pi/alat
        k(    1) = (   0.0000000   0.0000000   0.0000000), wk =   0.0092593
        k(    2) = (  -0.1666667   0.1666667  -0.1666667), wk =   0.0740741
        k(    3) = (  -0.3333333   0.3333333  -0.3333333), wk =   0.0740741
        k(    4) = (   0.5000000  -0.5000000   0.5000000), wk =   0.0370370
        k(    5) = (   0.0000000   0.3333333   0.0000000), wk =   0.0555556
        k(    6) = (  -0.1666667   0.5000000  -0.1666667), wk =   0.2222222
        k(    7) = (   0.6666667  -0.3333333   0.6666667), wk =   0.2222222
        k(    8) = (   0.5000000  -0.1666667   0.5000000), wk =   0.2222222
        k(    9) = (   0.3333333   0.0000000   0.3333333), wk =   0.1111111
        k(   10) = (   0.0000000   0.6666667   0.0000000), wk =   0.0555556
        k(   11) = (   0.8333333  -0.1666667   0.8333333), wk =   0.2222222
        k(   12) = (   0.6666667  -0.0000000   0.6666667), wk =   0.1111111
        k(   13) = (   0.0000000  -1.0000000   0.0000000), wk =   0.0277778
        k(   14) = (   0.6666667  -0.3333333   1.0000000), wk =   0.2222222
        k(   15) = (   0.5000000  -0.1666667   0.8333333), wk =   0.2222222
        k(   16) = (  -0.3333333  -1.0000000   0.0000000), wk =   0.1111111

     Dense  grid:     4285 G-vectors     FFT dimensions: (  24,  24,  24)

     Smooth grid:     1471 G-vectors     FFT dimensions: (  18,  18,  18)

     Estimated max dynamical RAM per process >      16.83 MB

     Check: negative core charge=   -0.000002

     Initial potential from superposition of free atoms

     starting charge   13.99765, renormalised to   14.00000
     Starting wfcs are    9 randomized atomic wfcs +    2 random wfcs

     total cpu time spent up to now is        1.1 secs

     Self-consistent Calculation

     iteration #  1     ecut=    15.00 Ry     beta= 0.70
     Davidson diagonalization with overlap
     ethr =  1.00E-02,  avg # of iterations =  4.3

     total cpu time spent up to now is        1.3 secs

     total energy              =    -118.56393783 Ry
     Harris-Foulkes estimate   =    -124.30530650 Ry
     estimated scf accuracy    <       7.24154938 Ry

     iteration #  2     ecut=    15.00 Ry     beta= 0.70
     Davidson diagonalization with overlap
     ethr =  1.00E-02,  avg # of iterations =  2.1

     total cpu time spent up to now is        1.5 secs

     total energy              =    -120.80249237 Ry
     Harris-Foulkes estimate   =    -121.37920053 Ry
     estimated scf accuracy    <       1.10599335 Ry

     iteration #  3     ecut=    15.00 Ry     beta= 0.70
     Davidson diagonalization with overlap
     ethr =  7.90E-03,  avg # of iterations =  1.9

     total cpu time spent up to now is        1.6 secs

     total energy              =    -120.89089018 Ry
     Harris-Foulkes estimate   =    -120.91821035 Ry
     estimated scf accuracy    <       0.06058999 Ry

     iteration #  4     ecut=    15.00 Ry     beta= 0.70
     Davidson diagonalization with overlap
     ethr =  4.33E-04,  avg # of iterations =  2.1

     total cpu time spent up to now is        1.8 secs

     total energy              =    -120.89572536 Ry
     Harris-Foulkes estimate   =    -120.89803088 Ry
     estimated scf accuracy    <       0.00337965 Ry

     iteration #  5     ecut=    15.00 Ry     beta= 0.70
     Davidson diagonalization with overlap
     ethr =  2.41E-05,  avg # of iterations =  2.1

     total cpu time spent up to now is        1.9 secs

     total energy              =    -120.89652172 Ry
     Harris-Foulkes estimate   =    -120.89654461 Ry
     estimated scf accuracy    <       0.00003753 Ry

     iteration #  6     ecut=    15.00 Ry     beta= 0.70
     Davidson diagonalization with overlap
     ethr =  2.68E-07,  avg # of iterations =  2.1

     total cpu time spent up to now is        2.1 secs

     total energy              =    -120.89653025 Ry
     Harris-Foulkes estimate   =    -120.89653044 Ry
     estimated scf accuracy    <       0.00000035 Ry

     iteration #  7     ecut=    15.00 Ry     beta= 0.70
     Davidson diagonalization with overlap
     ethr =  2.53E-09,  avg # of iterations =  2.0

     total cpu time spent up to now is        2.2 secs

     total energy              =    -120.89653035 Ry
     Harris-Foulkes estimate   =    -120.89653043 Ry
     estimated scf accuracy    <       0.00000013 Ry

     iteration #  8     ecut=    15.00 Ry     beta= 0.70
     Davidson diagonalization with overlap
     ethr =  9.31E-10,  avg # of iterations =  2.0

     total cpu time spent up to now is        2.4 secs

     End of self-consistent calculation

          k = 0.0000 0.0000 0.0000 (   181 PWs)   bands (ev):

    -2.4803   3.8433   3.8433   3.9507   3.9507   3.9507  17.0638  17.0638
    17.0638  21.4411  23.4439

          k =-0.1667 0.1667-0.1667 (   184 PWs)   bands (ev):

    -2.0519   3.0658   3.3708   3.3708   4.1268   4.1268  13.6446  16.7443
    16.7443  22.9108  24.5741

          k =-0.3333 0.3333-0.3333 (   186 PWs)   bands (ev):

    -1.0109   1.9560   1.9560   3.0921   4.7717   4.7717   9.3264  15.9754
    15.9754  22.8372  24.1143

          k = 0.5000-0.5000 0.5000 (   180 PWs)   bands (ev):

    -0.2836   3.0362   3.0362   4.8843   4.8843   5.3340   7.1707  15.5597
    15.5597  22.8922  23.9089

          k = 0.0000 0.3333 0.0000 (   186 PWs)   bands (ev):

    -1.9050   1.8823   3.4501   3.4501   3.7827   4.1681  13.9142  15.8309
    15.8309  23.4158  23.6264

          k =-0.1667 0.5000-0.1667 (   195 PWs)   bands (ev):

    -1.0433   0.8924   0.9899   2.6566   3.0105   3.5273  10.5630  14.8113
    14.8652  22.5753  24.3786

          k = 0.6667-0.3333 0.6667 (   190 PWs)   bands (ev):

    -0.1087   1.4935   2.0821   2.8945   3.6555   4.4770   8.0455  13.6521
    14.7675  22.5572  25.5940

          k = 0.5000-0.1667 0.5000 (   190 PWs)   bands (ev):

    -0.3576   1.6295   2.4546   2.9869   3.5442   4.1732   8.7105  13.1767
    15.6377  22.8696  25.0551

          k = 0.3333 0.0000 0.3333 (   192 PWs)   bands (ev):

    -1.4069   1.6829   1.8069   1.8383   3.4100   4.3152  11.4975  14.3508
    16.6954  24.1132  24.4392

          k = 0.0000 0.6667 0.0000 (   194 PWs)   bands (ev):

    -0.4171   0.7094   0.7094   1.3856   3.9538   4.1605  10.0045  13.5845
    13.5845  21.5882  23.7859

          k = 0.8333-0.1667 0.8333 (   196 PWs)   bands (ev):

     0.3546   0.9338   1.4203   2.0082   2.3312   3.7274   8.7302  11.9363
    13.3205  21.3960  24.5436

          k = 0.6667-0.0000 0.6667 (   186 PWs)   bands (ev):

     0.5162   2.5026   2.6664   3.3382   4.1206   4.4074   9.9344  10.0726
    14.2951  22.1633  27.6660

          k = 0.0000-1.0000 0.0000 (   190 PWs)   bands (ev):

     0.6103   1.3029   2.3848   2.3848   3.5464   4.3670   7.9252  12.6973
    12.6973  20.6474  24.2703

          k = 0.6667-0.3333 1.0000 (   195 PWs)   bands (ev):

    -0.1593   1.3300   1.4378   2.4081   2.8121   3.3959   9.4507  12.1648
    14.2993  22.8049  25.0306

          k = 0.5000-0.1667 0.8333 (   196 PWs)   bands (ev):

     0.3467   1.0991   1.9946   2.2810   2.5212   2.8315   9.0573  11.2755
    13.5288  22.9979  25.7023

          k =-0.3333-1.0000 0.0000 (   202 PWs)   bands (ev):

     0.1575   0.4827   1.1322   1.2480   1.4289   2.7197   8.9729  11.2597
    12.2944  22.2120  24.7012

     the Fermi energy is    11.1828 ev

!    total energy              =    -120.89653037 Ry
     Harris-Foulkes estimate   =    -120.89653037 Ry
     estimated scf accuracy    <          1.4E-10 Ry

     The total energy is the sum of the following terms:

     one-electron contribution =     -10.41873873 Ry
     hartree contribution      =      17.02805866 Ry
     xc contribution           =     -30.06720365 Ry
     ewald contribution        =     -97.43857725 Ry
     smearing contrib. (-TS)   =      -0.00006940 Ry

     convergence has been achieved in   8 iterations

     Writing output data file Pb.save/

     init_run     :      0.40s CPU      0.41s WALL (       1 calls)
     electrons    :      1.18s CPU      1.20s WALL (       1 calls)

     Called by init_run:
     wfcinit      :      0.04s CPU      0.04s WALL (       1 calls)
     potinit      :      0.01s CPU      0.01s WALL (       1 calls)
     hinit0       :      0.34s CPU      0.34s WALL (       1 calls)

     Called by electrons:
     c_bands      :      0.85s CPU      0.87s WALL (       8 calls)
     sum_band     :      0.22s CPU      0.22s WALL (       8 calls)
     v_of_rho     :      0.05s CPU      0.05s WALL (       9 calls)
     newd         :      0.06s CPU      0.07s WALL (       9 calls)
     mix_rho      :      0.00s CPU      0.00s WALL (       8 calls)

     Called by c_bands:
     init_us_2    :      0.01s CPU      0.01s WALL (     272 calls)
     cegterg      :      0.82s CPU      0.84s WALL (     128 calls)

     Called by sum_band:
     sum_band:bec :      0.00s CPU      0.00s WALL (     128 calls)
     addusdens    :      0.06s CPU      0.07s WALL (       8 calls)

     Called by *egterg:
     h_psi        :      0.64s CPU      0.65s WALL (     441 calls)
     s_psi        :      0.02s CPU      0.02s WALL (     441 calls)
     g_psi        :      0.00s CPU      0.00s WALL (     297 calls)
     cdiaghg      :      0.08s CPU      0.09s WALL (     425 calls)

     Called by h_psi:
     h_psi:pot    :      0.64s CPU      0.65s WALL (     441 calls)
     h_psi:calbec :      0.02s CPU      0.03s WALL (     441 calls)
     vloc_psi     :      0.59s CPU      0.60s WALL (     441 calls)
     add_vuspsi   :      0.02s CPU      0.03s WALL (     441 calls)

     General routines
     calbec       :      0.03s CPU      0.03s WALL (     569 calls)
     fft          :      0.03s CPU      0.03s WALL (     115 calls)
     ffts         :      0.01s CPU      0.01s WALL (      17 calls)
     fftw         :      0.64s CPU      0.65s WALL (    9122 calls)
     interpolate  :      0.01s CPU      0.01s WALL (       9 calls)

     Parallel routines

     PWSCF        :      2.32s CPU      2.36s WALL


   This run was terminated on:  16:46: 9  30Jun2021            

=------------------------------------------------------------------------------=
   JOB DONE.
=------------------------------------------------------------------------------=
