
     Program PWSCF v.6.4.1 starts on 30Jun2021 at 16:47:34 

     This program is part of the open-source Quantum ESPRESSO suite
     for quantum simulation of materials; please cite
         "P. Giannozzi et al., J. Phys.:Condens. Matter 21 395502 (2009);
         "P. Giannozzi et al., J. Phys.:Condens. Matter 29 465901 (2017);
          URL http://www.quantum-espresso.org", 
     in publications or presentations arising from this work. More details at
     http://www.quantum-espresso.org/quote

     Parallel version (MPI), running on     1 processors

     MPI processes distributed on     1 nodes
     Waiting for input...
     Reading input from standard input

     Current dimensions of program PWSCF are:
     Max number of different atomic species (ntypx) = 10
     Max number of k-points (npk) =  40000
     Max angular momentum in pseudopotentials (lmaxx) =  3
               file Pb.pbe-dn-rrkjus_psl.1.0.0.UPF: wavefunction(s)  6S 5D renormalized

     Subspace diagonalization in iterative solution of the eigenvalue problem:
     a serial algorithm will be used


     G-vector sticks info
     --------------------
     sticks:   dense  smooth     PW     G-vecs:    dense   smooth      PW
     Sum        2347    1159    349                75089    26469    4279


     Title: 
     Lead                                                                       


     bravais-lattice index     =            2
     lattice parameter (alat)  =       9.2226  a.u.
     unit-cell volume          =     196.1075 (a.u.)^3
     number of atoms/cell      =            1
     number of atomic types    =            1
     number of electrons       =        14.00
     number of Kohn-Sham states=           11
     kinetic-energy cutoff     =     100.0000  Ry
     charge density cutoff     =     800.0000  Ry
     convergence threshold     =      1.0E-09
     mixing beta               =       0.7000
     number of iterations used =            8  plain     mixing
     Exchange-correlation      = PBE ( 1  4  3  4 0 0)

     celldm(1)=   9.222558  celldm(2)=   0.000000  celldm(3)=   0.000000
     celldm(4)=   0.000000  celldm(5)=   0.000000  celldm(6)=   0.000000

     crystal axes: (cart. coord. in units of alat)
               a(1) = (  -0.500000   0.000000   0.500000 )  
               a(2) = (   0.000000   0.500000   0.500000 )  
               a(3) = (  -0.500000   0.500000   0.000000 )  

     reciprocal axes: (cart. coord. in units 2 pi/alat)
               b(1) = ( -1.000000 -1.000000  1.000000 )  
               b(2) = (  1.000000  1.000000  1.000000 )  
               b(3) = ( -1.000000  1.000000 -1.000000 )  


     PseudoPot. # 1 for Pb read from file:
     /home/elena/qe-6.7/pseudo/Pb.pbe-dn-rrkjus_psl.1.0.0.UPF
     MD5 check sum: 1cf8f5e18580e6a90a35f98a53d336de
     Pseudo is Ultrasoft + core correction, Zval = 14.0
     Generated using "atomic" code by A. Dal Corso v.6.3
     Using radial grid of 1281 points,  6 beta functions with: 
                l(1) =   0
                l(2) =   0
                l(3) =   1
                l(4) =   1
                l(5) =   2
                l(6) =   2
     Q(r) pseudized with 0 coefficients 


     atomic species   valence    mass     pseudopotential
        Pb            14.00   207.20000     Pb( 1.00)

     48 Sym. Ops., with inversion, found



   Cartesian axes

     site n.     atom                  positions (alat units)
         1           Pb  tau(   1) = (   0.0000000   0.0000000   0.0000000  )

     number of k points=    16  Methfessel-Paxton smearing, width (Ry)=  0.0500
                       cart. coord. in units 2pi/alat
        k(    1) = (   0.0000000   0.0000000   0.0000000), wk =   0.0092593
        k(    2) = (  -0.1666667   0.1666667  -0.1666667), wk =   0.0740741
        k(    3) = (  -0.3333333   0.3333333  -0.3333333), wk =   0.0740741
        k(    4) = (   0.5000000  -0.5000000   0.5000000), wk =   0.0370370
        k(    5) = (   0.0000000   0.3333333   0.0000000), wk =   0.0555556
        k(    6) = (  -0.1666667   0.5000000  -0.1666667), wk =   0.2222222
        k(    7) = (   0.6666667  -0.3333333   0.6666667), wk =   0.2222222
        k(    8) = (   0.5000000  -0.1666667   0.5000000), wk =   0.2222222
        k(    9) = (   0.3333333   0.0000000   0.3333333), wk =   0.1111111
        k(   10) = (   0.0000000   0.6666667   0.0000000), wk =   0.0555556
        k(   11) = (   0.8333333  -0.1666667   0.8333333), wk =   0.2222222
        k(   12) = (   0.6666667  -0.0000000   0.6666667), wk =   0.1111111
        k(   13) = (   0.0000000  -1.0000000   0.0000000), wk =   0.0277778
        k(   14) = (   0.6666667  -0.3333333   1.0000000), wk =   0.2222222
        k(   15) = (   0.5000000  -0.1666667   0.8333333), wk =   0.2222222
        k(   16) = (  -0.3333333  -1.0000000   0.0000000), wk =   0.1111111

     Dense  grid:    75089 G-vectors     FFT dimensions: (  60,  60,  60)

     Smooth grid:    26469 G-vectors     FFT dimensions: (  45,  45,  45)

     Estimated max dynamical RAM per process >     273.63 MB

     Initial potential from superposition of free atoms

     starting charge   13.99765, renormalised to   14.00000
     Starting wfcs are    9 randomized atomic wfcs +    2 random wfcs

     total cpu time spent up to now is        2.7 secs

     Self-consistent Calculation

     iteration #  1     ecut=   100.00 Ry     beta= 0.70
     Davidson diagonalization with overlap
     ethr =  1.00E-02,  avg # of iterations =  4.3

     Threshold (ethr) on eigenvalues was too large:
     Diagonalizing with lowered threshold

     Davidson diagonalization with overlap
     ethr =  1.52E-05,  avg # of iterations =  4.0

     total cpu time spent up to now is        8.0 secs

     total energy              =    -135.42930450 Ry
     Harris-Foulkes estimate   =    -135.43057221 Ry
     estimated scf accuracy    <       0.00214569 Ry

     iteration #  2     ecut=   100.00 Ry     beta= 0.70
     Davidson diagonalization with overlap
     ethr =  1.53E-05,  avg # of iterations =  2.3

     total cpu time spent up to now is       10.5 secs

     total energy              =    -135.42973131 Ry
     Harris-Foulkes estimate   =    -135.42983799 Ry
     estimated scf accuracy    <       0.00019137 Ry

     iteration #  3     ecut=   100.00 Ry     beta= 0.70
     Davidson diagonalization with overlap
     ethr =  1.37E-06,  avg # of iterations =  2.1

     total cpu time spent up to now is       12.9 secs

     total energy              =    -135.42977027 Ry
     Harris-Foulkes estimate   =    -135.42977145 Ry
     estimated scf accuracy    <       0.00000988 Ry

     iteration #  4     ecut=   100.00 Ry     beta= 0.70
     Davidson diagonalization with overlap
     ethr =  7.06E-08,  avg # of iterations =  1.8

     total cpu time spent up to now is       15.1 secs

     total energy              =    -135.42977136 Ry
     Harris-Foulkes estimate   =    -135.42977131 Ry
     estimated scf accuracy    <       0.00000008 Ry

     iteration #  5     ecut=   100.00 Ry     beta= 0.70
     Davidson diagonalization with overlap
     ethr =  5.66E-10,  avg # of iterations =  2.2

     total cpu time spent up to now is       17.7 secs

     total energy              =    -135.42977138 Ry
     Harris-Foulkes estimate   =    -135.42977139 Ry
     estimated scf accuracy    <          6.4E-09 Ry

     iteration #  6     ecut=   100.00 Ry     beta= 0.70
     Davidson diagonalization with overlap
     ethr =  4.58E-11,  avg # of iterations =  2.0

     total cpu time spent up to now is       20.2 secs

     End of self-consistent calculation

          k = 0.0000 0.0000 0.0000 (  3287 PWs)   bands (ev):

    -5.2114  -5.2114  -5.2114  -5.0534  -5.0534  -0.1736  19.6511  19.6511
    19.6511  21.9824  23.7644

          k =-0.1667 0.1667-0.1667 (  3329 PWs)   bands (ev):

    -5.2154  -5.1782  -5.1782  -5.0473  -5.0473   0.3865  15.3609  19.0463
    19.0463  21.3678  24.9196

          k =-0.3333 0.3333-0.3333 (  3305 PWs)   bands (ev):

    -5.2362  -5.1827  -5.1827  -4.9609  -4.9609   2.0312  10.3129  18.1212
    18.1212  21.1225  22.8259

          k = 0.5000-0.5000 0.5000 (  3316 PWs)   bands (ev):

    -5.2518  -5.2005  -5.2005  -4.9006  -4.9006   3.7109   7.4546  17.7249
    17.7249  21.3922  21.7380

          k = 0.0000 0.3333 0.0000 (  3315 PWs)   bands (ev):

    -5.2588  -5.1284  -5.1284  -5.1062  -5.0188   0.5722  16.6031  17.3970
    17.3970  20.4385  21.9323

          k =-0.1667 0.5000-0.1667 (  3312 PWs)   bands (ev):

    -5.2700  -5.1598  -5.0993  -5.0457  -4.9460   1.8615  12.1437  16.2473
    16.3449  19.9449  22.4341

          k = 0.6667-0.3333 0.6667 (  3309 PWs)   bands (ev):

    -5.2531  -5.1720  -5.1257  -4.9836  -4.8962   3.8087   8.4186  14.6959
    16.3771  19.6495  24.6659

          k = 0.5000-0.1667 0.5000 (  3316 PWs)   bands (ev):

    -5.2159  -5.1819  -5.1292  -4.9740  -4.9541   3.1782   9.4402  14.0158
    17.5615  20.4445  23.9073

          k = 0.3333 0.0000 0.3333 (  3325 PWs)   bands (ev):

    -5.2119  -5.1697  -5.1184  -5.0864  -4.9841   1.3138  13.3452  14.9795
    19.2874  22.2810  23.0831

          k = 0.0000 0.6667 0.0000 (  3347 PWs)   bands (ev):

    -5.3529  -5.2326  -4.9536  -4.9536  -4.9489   2.7681  11.9547  14.9194
    14.9194  18.3383  19.1044

          k = 0.8333-0.1667 0.8333 (  3314 PWs)   bands (ev):

    -5.3375  -5.2387  -4.9753  -4.9380  -4.8836   4.4486   9.6675  12.3066
    14.6604  18.3328  21.3895

          k = 0.6667-0.0000 0.6667 (  3298 PWs)   bands (ev):

    -5.2777  -5.0996  -5.0446  -5.0185  -4.9431   4.7271   9.9816  10.2438
    15.6870  18.9687  26.1572

          k = 0.0000-1.0000 0.0000 (  3306 PWs)   bands (ev):

    -5.3995  -5.3035  -4.9137  -4.8612  -4.8612   5.2267   8.4341  13.9979
    13.9979  17.3935  18.6687

          k = 0.6667-0.3333 1.0000 (  3317 PWs)   bands (ev):

    -5.2474  -5.1950  -5.0831  -4.9583  -4.9441   3.3883  10.7984  12.6390
    15.0138  21.3630  22.3837

          k = 0.5000-0.1667 0.8333 (  3308 PWs)   bands (ev):

    -5.2196  -5.1735  -5.0688  -5.0228  -4.8991   4.7512   9.1171  11.8889
    13.9509  21.5816  23.5972

          k =-0.3333-1.0000 0.0000 (  3306 PWs)   bands (ev):

    -5.2762  -5.2347  -5.0081  -4.9732  -4.8612   5.3122   9.3519  11.7815
    12.4496  20.9707  21.8580

     the Fermi energy is    12.0474 ev

!    total energy              =    -135.42977139 Ry
     Harris-Foulkes estimate   =    -135.42977139 Ry
     estimated scf accuracy    <          3.6E-10 Ry

     The total energy is the sum of the following terms:

     one-electron contribution =     -31.48108287 Ry
     hartree contribution      =      26.12130372 Ry
     xc contribution           =     -32.62750363 Ry
     ewald contribution        =     -97.43857717 Ry
     smearing contrib. (-TS)   =      -0.00391144 Ry

     convergence has been achieved in   6 iterations

     Writing output data file Pb.save/

     init_run     :      1.81s CPU      1.92s WALL (       1 calls)
     electrons    :     16.59s CPU     17.50s WALL (       1 calls)

     Called by init_run:
     wfcinit      :      0.58s CPU      0.58s WALL (       1 calls)
     potinit      :      0.13s CPU      0.14s WALL (       1 calls)
     hinit0       :      0.93s CPU      0.93s WALL (       1 calls)

     Called by electrons:
     c_bands      :     11.67s CPU     11.69s WALL (       7 calls)
     sum_band     :      3.17s CPU      3.70s WALL (       7 calls)
     v_of_rho     :      0.79s CPU      0.80s WALL (       7 calls)
     newd         :      1.04s CPU      1.49s WALL (       7 calls)
     mix_rho      :      0.09s CPU      0.09s WALL (       7 calls)

     Called by c_bands:
     init_us_2    :      0.21s CPU      0.21s WALL (     240 calls)
     cegterg      :     11.19s CPU     11.21s WALL (     112 calls)

     Called by sum_band:
     sum_band:bec :      0.00s CPU      0.00s WALL (     112 calls)
     addusdens    :      1.15s CPU      1.67s WALL (       7 calls)

     Called by *egterg:
     h_psi        :      9.62s CPU      9.64s WALL (     427 calls)
     s_psi        :      0.35s CPU      0.35s WALL (     427 calls)
     g_psi        :      0.05s CPU      0.05s WALL (     299 calls)
     cdiaghg      :      0.09s CPU      0.09s WALL (     395 calls)

     Called by h_psi:
     h_psi:pot    :      9.59s CPU      9.61s WALL (     427 calls)
     h_psi:calbec :      0.39s CPU      0.39s WALL (     427 calls)
     vloc_psi     :      8.84s CPU      8.85s WALL (     427 calls)
     add_vuspsi   :      0.36s CPU      0.36s WALL (     427 calls)

     General routines
     calbec       :      0.53s CPU      0.53s WALL (     539 calls)
     fft          :      0.43s CPU      0.43s WALL (      90 calls)
     ffts         :      0.03s CPU      0.03s WALL (      14 calls)
     fftw         :      9.33s CPU      9.34s WALL (    7980 calls)
     interpolate  :      0.04s CPU      0.04s WALL (       7 calls)

     Parallel routines

     PWSCF        :     19.18s CPU     20.22s WALL


   This run was terminated on:  16:47:55  30Jun2021            

=------------------------------------------------------------------------------=
   JOB DONE.
=------------------------------------------------------------------------------=
