
     Program PWSCF v.6.4.1 starts on 30Jun2021 at 16:46: 5 

     This program is part of the open-source Quantum ESPRESSO suite
     for quantum simulation of materials; please cite
         "P. Giannozzi et al., J. Phys.:Condens. Matter 21 395502 (2009);
         "P. Giannozzi et al., J. Phys.:Condens. Matter 29 465901 (2017);
          URL http://www.quantum-espresso.org", 
     in publications or presentations arising from this work. More details at
     http://www.quantum-espresso.org/quote

     Parallel version (MPI), running on     1 processors

     MPI processes distributed on     1 nodes
     Waiting for input...
     Reading input from standard input

     Current dimensions of program PWSCF are:
     Max number of different atomic species (ntypx) = 10
     Max number of k-points (npk) =  40000
     Max angular momentum in pseudopotentials (lmaxx) =  3
               file Pb.pbe-dn-rrkjus_psl.1.0.0.UPF: wavefunction(s)  6S 5D renormalized

     Subspace diagonalization in iterative solution of the eigenvalue problem:
     a serial algorithm will be used


     G-vector sticks info
     --------------------
     sticks:   dense  smooth     PW     G-vecs:    dense   smooth      PW
     Sum         241     121     43                 2421      869     181


     Title: 
     Lead                                                                       


     bravais-lattice index     =            2
     lattice parameter (alat)  =       9.2226  a.u.
     unit-cell volume          =     196.1075 (a.u.)^3
     number of atoms/cell      =            1
     number of atomic types    =            1
     number of electrons       =        14.00
     number of Kohn-Sham states=           11
     kinetic-energy cutoff     =      10.0000  Ry
     charge density cutoff     =      80.0000  Ry
     convergence threshold     =      1.0E-09
     mixing beta               =       0.7000
     number of iterations used =            8  plain     mixing
     Exchange-correlation      = PBE ( 1  4  3  4 0 0)

     celldm(1)=   9.222558  celldm(2)=   0.000000  celldm(3)=   0.000000
     celldm(4)=   0.000000  celldm(5)=   0.000000  celldm(6)=   0.000000

     crystal axes: (cart. coord. in units of alat)
               a(1) = (  -0.500000   0.000000   0.500000 )  
               a(2) = (   0.000000   0.500000   0.500000 )  
               a(3) = (  -0.500000   0.500000   0.000000 )  

     reciprocal axes: (cart. coord. in units 2 pi/alat)
               b(1) = ( -1.000000 -1.000000  1.000000 )  
               b(2) = (  1.000000  1.000000  1.000000 )  
               b(3) = ( -1.000000  1.000000 -1.000000 )  


     PseudoPot. # 1 for Pb read from file:
     /home/elena/qe-6.7/pseudo/Pb.pbe-dn-rrkjus_psl.1.0.0.UPF
     MD5 check sum: 1cf8f5e18580e6a90a35f98a53d336de
     Pseudo is Ultrasoft + core correction, Zval = 14.0
     Generated using "atomic" code by A. Dal Corso v.6.3
     Using radial grid of 1281 points,  6 beta functions with: 
                l(1) =   0
                l(2) =   0
                l(3) =   1
                l(4) =   1
                l(5) =   2
                l(6) =   2
     Q(r) pseudized with 0 coefficients 


     atomic species   valence    mass     pseudopotential
        Pb            14.00   207.20000     Pb( 1.00)

     48 Sym. Ops., with inversion, found



   Cartesian axes

     site n.     atom                  positions (alat units)
         1           Pb  tau(   1) = (   0.0000000   0.0000000   0.0000000  )

     number of k points=    16  Methfessel-Paxton smearing, width (Ry)=  0.0500
                       cart. coord. in units 2pi/alat
        k(    1) = (   0.0000000   0.0000000   0.0000000), wk =   0.0092593
        k(    2) = (  -0.1666667   0.1666667  -0.1666667), wk =   0.0740741
        k(    3) = (  -0.3333333   0.3333333  -0.3333333), wk =   0.0740741
        k(    4) = (   0.5000000  -0.5000000   0.5000000), wk =   0.0370370
        k(    5) = (   0.0000000   0.3333333   0.0000000), wk =   0.0555556
        k(    6) = (  -0.1666667   0.5000000  -0.1666667), wk =   0.2222222
        k(    7) = (   0.6666667  -0.3333333   0.6666667), wk =   0.2222222
        k(    8) = (   0.5000000  -0.1666667   0.5000000), wk =   0.2222222
        k(    9) = (   0.3333333   0.0000000   0.3333333), wk =   0.1111111
        k(   10) = (   0.0000000   0.6666667   0.0000000), wk =   0.0555556
        k(   11) = (   0.8333333  -0.1666667   0.8333333), wk =   0.2222222
        k(   12) = (   0.6666667  -0.0000000   0.6666667), wk =   0.1111111
        k(   13) = (   0.0000000  -1.0000000   0.0000000), wk =   0.0277778
        k(   14) = (   0.6666667  -0.3333333   1.0000000), wk =   0.2222222
        k(   15) = (   0.5000000  -0.1666667   0.8333333), wk =   0.2222222
        k(   16) = (  -0.3333333  -1.0000000   0.0000000), wk =   0.1111111

     Dense  grid:     2421 G-vectors     FFT dimensions: (  20,  20,  20)

     Smooth grid:      869 G-vectors     FFT dimensions: (  15,  15,  15)

     Estimated max dynamical RAM per process >       9.83 MB

     Check: negative core charge=   -0.000008

     Initial potential from superposition of free atoms

     starting charge   13.99765, renormalised to   14.00000
     Starting wfcs are    9 randomized atomic wfcs +    2 random wfcs

     total cpu time spent up to now is        1.2 secs

     Self-consistent Calculation

     iteration #  1     ecut=    10.00 Ry     beta= 0.70
     Davidson diagonalization with overlap
     ethr =  1.00E-02,  avg # of iterations =  4.3

     total cpu time spent up to now is        1.4 secs

     total energy              =    -107.28957934 Ry
     Harris-Foulkes estimate   =    -120.94028249 Ry
     estimated scf accuracy    <      16.99806468 Ry

     iteration #  2     ecut=    10.00 Ry     beta= 0.70
     Davidson diagonalization with overlap
     ethr =  1.00E-02,  avg # of iterations =  2.9

     total cpu time spent up to now is        1.4 secs

     total energy              =    -111.44797160 Ry
     Harris-Foulkes estimate   =    -112.21901817 Ry
     estimated scf accuracy    <       1.93529589 Ry

     iteration #  3     ecut=    10.00 Ry     beta= 0.70
     Davidson diagonalization with overlap
     ethr =  1.00E-02,  avg # of iterations =  1.2

     negative rho (up, down):  3.151E-02 0.000E+00

     total cpu time spent up to now is        1.5 secs

     total energy              =    -111.50632371 Ry
     Harris-Foulkes estimate   =    -111.55998575 Ry
     estimated scf accuracy    <       0.14196212 Ry

     iteration #  4     ecut=    10.00 Ry     beta= 0.70
     Davidson diagonalization with overlap
     ethr =  1.01E-03,  avg # of iterations =  1.2

     negative rho (up, down):  2.383E-02 0.000E+00

     total cpu time spent up to now is        1.5 secs

     total energy              =    -111.51171460 Ry
     Harris-Foulkes estimate   =    -111.51477773 Ry
     estimated scf accuracy    <       0.00499765 Ry

     iteration #  5     ecut=    10.00 Ry     beta= 0.70
     Davidson diagonalization with overlap
     ethr =  3.57E-05,  avg # of iterations =  2.4

     negative rho (up, down):  2.745E-02 0.000E+00

     total cpu time spent up to now is        1.6 secs

     total energy              =    -111.51280885 Ry
     Harris-Foulkes estimate   =    -111.51348322 Ry
     estimated scf accuracy    <       0.00120611 Ry

     iteration #  6     ecut=    10.00 Ry     beta= 0.70
     Davidson diagonalization with overlap
     ethr =  8.62E-06,  avg # of iterations =  2.1

     negative rho (up, down):  2.732E-02 0.000E+00

     total cpu time spent up to now is        1.7 secs

     total energy              =    -111.51302232 Ry
     Harris-Foulkes estimate   =    -111.51302764 Ry
     estimated scf accuracy    <       0.00000943 Ry

     iteration #  7     ecut=    10.00 Ry     beta= 0.70
     Davidson diagonalization with overlap
     ethr =  6.73E-08,  avg # of iterations =  2.1

     negative rho (up, down):  2.735E-02 0.000E+00

     total cpu time spent up to now is        1.7 secs

     total energy              =    -111.51302454 Ry
     Harris-Foulkes estimate   =    -111.51302454 Ry
     estimated scf accuracy    <       0.00000005 Ry

     iteration #  8     ecut=    10.00 Ry     beta= 0.70
     Davidson diagonalization with overlap
     ethr =  3.90E-10,  avg # of iterations =  1.7

     negative rho (up, down):  2.736E-02 0.000E+00

     total cpu time spent up to now is        1.8 secs

     total energy              =    -111.51302455 Ry
     Harris-Foulkes estimate   =    -111.51302455 Ry
     estimated scf accuracy    <          3.5E-09 Ry

     iteration #  9     ecut=    10.00 Ry     beta= 0.70
     Davidson diagonalization with overlap
     ethr =  2.48E-11,  avg # of iterations =  2.0

     negative rho (up, down):  2.737E-02 0.000E+00

     total cpu time spent up to now is        1.8 secs

     End of self-consistent calculation

          k = 0.0000 0.0000 0.0000 (   113 PWs)   bands (ev):

    -7.5547   6.0466   6.0466   6.0466   6.4942   6.4942  13.1385  13.1385
    13.1385  20.5165  25.1233

          k =-0.1667 0.1667-0.1667 (   110 PWs)   bands (ev):

    -7.2598   5.5803   6.4806   6.4806   7.8618   7.8618  10.7609  13.0271
    13.0271  22.7332  25.7504

          k =-0.3333 0.3333-0.3333 (    99 PWs)   bands (ev):

    -6.5819   6.7297   7.6746   8.1131   8.1131   9.8841   9.8841  12.7980
    12.7980  24.5899  26.3296

          k = 0.5000-0.5000 0.5000 (   108 PWs)   bands (ev):

    -6.3059   6.0582   6.2364   6.5764   6.5764   8.4146   8.4146  12.1782
    12.1782  24.5227  26.0476

          k = 0.0000 0.3333 0.0000 (   113 PWs)   bands (ev):

    -7.1911   5.6965   5.8541   5.8541   6.8032   7.4694  10.8537  12.5660
    12.5660  23.3970  25.7072

          k =-0.1667 0.5000-0.1667 (   103 PWs)   bands (ev):

    -6.6330   6.6364   7.3576   7.8250   8.4526   8.5988   9.0713  12.1002
    12.2533  24.8456  27.3067

          k = 0.6667-0.3333 0.6667 (   105 PWs)   bands (ev):

    -6.1797   6.1604   6.3869   7.0411   7.1166   9.0248   9.0623  11.4136
    11.7710  24.8526  27.4585

          k = 0.5000-0.1667 0.5000 (   103 PWs)   bands (ev):

    -6.2791   6.5275   6.7032   7.4267   7.7195   8.8852   9.3460  11.2873
    12.4706  25.1399  27.2066

          k = 0.3333 0.0000 0.3333 (    99 PWs)   bands (ev):

    -6.7978   7.9405   8.1723   8.2758   8.8527   8.8607   9.5447  12.1806
    13.0633  24.9882  26.8244

          k = 0.0000 0.6667 0.0000 (   104 PWs)   bands (ev):

    -6.3151   5.8679   6.0764   8.0528   8.6563   8.6563   8.9565  11.4165
    11.4165  24.3874  27.4260

          k = 0.8333-0.1667 0.8333 (   106 PWs)   bands (ev):

    -5.9780   5.0374   6.1335   6.9144   8.2649   8.6782   8.7853  10.1289
    10.9756  24.6804  28.3139

          k = 0.6667-0.0000 0.6667 (   101 PWs)   bands (ev):

    -5.9192   6.3711   6.8342   6.8966   8.6297   9.3910   9.5044   9.7021
    11.6528  25.5497  28.6457

          k = 0.0000-1.0000 0.0000 (   108 PWs)   bands (ev):

    -5.8766   5.0579   5.2489   6.6191   7.2959   9.3231   9.3231  10.2314
    10.2314  24.0229  28.4069

          k = 0.6667-0.3333 1.0000 (   101 PWs)   bands (ev):

    -6.1646   6.9012   7.0267   7.7979   8.2399   8.7703   9.3018  10.7950
    11.8506  25.6313  28.2411

          k = 0.5000-0.1667 0.8333 (   104 PWs)   bands (ev):

    -5.9401   6.1491   6.6544   6.7589   8.2088   8.6773   9.1210   9.6366
    11.0989  25.9080  28.1826

          k =-0.3333-1.0000 0.0000 (   104 PWs)   bands (ev):

    -5.8364   6.1633   6.1737   6.6951   8.5524   8.7338   9.0994   9.4454
    10.5525  25.6212  29.1661

     the Fermi energy is     9.7155 ev

!    total energy              =    -111.51302455 Ry
     Harris-Foulkes estimate   =    -111.51302455 Ry
     estimated scf accuracy    <          6.9E-11 Ry

     The total energy is the sum of the following terms:

     one-electron contribution =       3.46060966 Ry
     hartree contribution      =      10.46505712 Ry
     xc contribution           =     -28.00427744 Ry
     ewald contribution        =     -97.43857721 Ry
     smearing contrib. (-TS)   =       0.00416332 Ry

     convergence has been achieved in   9 iterations

     Writing output data file Pb.save/

     init_run     :      0.34s CPU      0.42s WALL (       1 calls)
     electrons    :      0.53s CPU      0.56s WALL (       1 calls)

     Called by init_run:
     wfcinit      :      0.04s CPU      0.04s WALL (       1 calls)
     potinit      :      0.01s CPU      0.01s WALL (       1 calls)
     hinit0       :      0.27s CPU      0.35s WALL (       1 calls)

     Called by electrons:
     c_bands      :      0.38s CPU      0.41s WALL (       9 calls)
     sum_band     :      0.08s CPU      0.09s WALL (       9 calls)
     v_of_rho     :      0.03s CPU      0.03s WALL (      10 calls)
     newd         :      0.05s CPU      0.06s WALL (      10 calls)
     mix_rho      :      0.00s CPU      0.00s WALL (       9 calls)

     Called by c_bands:
     init_us_2    :      0.01s CPU      0.01s WALL (     304 calls)
     cegterg      :      0.36s CPU      0.39s WALL (     144 calls)

     Called by sum_band:
     sum_band:bec :      0.00s CPU      0.00s WALL (     144 calls)
     addusdens    :      0.04s CPU      0.04s WALL (       9 calls)

     Called by *egterg:
     h_psi        :      0.19s CPU      0.21s WALL (     479 calls)
     s_psi        :      0.02s CPU      0.02s WALL (     479 calls)
     g_psi        :      0.00s CPU      0.00s WALL (     319 calls)
     cdiaghg      :      0.10s CPU      0.11s WALL (     463 calls)

     Called by h_psi:
     h_psi:pot    :      0.19s CPU      0.20s WALL (     479 calls)
     h_psi:calbec :      0.02s CPU      0.02s WALL (     479 calls)
     vloc_psi     :      0.15s CPU      0.16s WALL (     479 calls)
     add_vuspsi   :      0.02s CPU      0.02s WALL (     479 calls)

     General routines
     calbec       :      0.02s CPU      0.02s WALL (     623 calls)
     fft          :      0.01s CPU      0.08s WALL (     128 calls)
     ffts         :      0.00s CPU      0.00s WALL (      19 calls)
     fftw         :      0.12s CPU      0.13s WALL (    9944 calls)
     interpolate  :      0.00s CPU      0.00s WALL (      10 calls)

     Parallel routines

     PWSCF        :      1.69s CPU      1.82s WALL


   This run was terminated on:  16:46: 6  30Jun2021            

=------------------------------------------------------------------------------=
   JOB DONE.
=------------------------------------------------------------------------------=
