
     Program PWSCF v.6.4.1 starts on 30Jun2021 at 16:46:12 

     This program is part of the open-source Quantum ESPRESSO suite
     for quantum simulation of materials; please cite
         "P. Giannozzi et al., J. Phys.:Condens. Matter 21 395502 (2009);
         "P. Giannozzi et al., J. Phys.:Condens. Matter 29 465901 (2017);
          URL http://www.quantum-espresso.org", 
     in publications or presentations arising from this work. More details at
     http://www.quantum-espresso.org/quote

     Parallel version (MPI), running on     1 processors

     MPI processes distributed on     1 nodes
     Waiting for input...
     Reading input from standard input

     Current dimensions of program PWSCF are:
     Max number of different atomic species (ntypx) = 10
     Max number of k-points (npk) =  40000
     Max angular momentum in pseudopotentials (lmaxx) =  3
               file Pb.pbe-dn-rrkjus_psl.1.0.0.UPF: wavefunction(s)  6S 5D renormalized

     Subspace diagonalization in iterative solution of the eigenvalue problem:
     a serial algorithm will be used


     G-vector sticks info
     --------------------
     sticks:   dense  smooth     PW     G-vecs:    dense   smooth      PW
     Sum         583     295     97                 9377     3287     645


     Title: 
     Lead                                                                       


     bravais-lattice index     =            2
     lattice parameter (alat)  =       9.2226  a.u.
     unit-cell volume          =     196.1075 (a.u.)^3
     number of atoms/cell      =            1
     number of atomic types    =            1
     number of electrons       =        14.00
     number of Kohn-Sham states=           11
     kinetic-energy cutoff     =      25.0000  Ry
     charge density cutoff     =     200.0000  Ry
     convergence threshold     =      1.0E-09
     mixing beta               =       0.7000
     number of iterations used =            8  plain     mixing
     Exchange-correlation      = PBE ( 1  4  3  4 0 0)

     celldm(1)=   9.222558  celldm(2)=   0.000000  celldm(3)=   0.000000
     celldm(4)=   0.000000  celldm(5)=   0.000000  celldm(6)=   0.000000

     crystal axes: (cart. coord. in units of alat)
               a(1) = (  -0.500000   0.000000   0.500000 )  
               a(2) = (   0.000000   0.500000   0.500000 )  
               a(3) = (  -0.500000   0.500000   0.000000 )  

     reciprocal axes: (cart. coord. in units 2 pi/alat)
               b(1) = ( -1.000000 -1.000000  1.000000 )  
               b(2) = (  1.000000  1.000000  1.000000 )  
               b(3) = ( -1.000000  1.000000 -1.000000 )  


     PseudoPot. # 1 for Pb read from file:
     /home/elena/qe-6.7/pseudo/Pb.pbe-dn-rrkjus_psl.1.0.0.UPF
     MD5 check sum: 1cf8f5e18580e6a90a35f98a53d336de
     Pseudo is Ultrasoft + core correction, Zval = 14.0
     Generated using "atomic" code by A. Dal Corso v.6.3
     Using radial grid of 1281 points,  6 beta functions with: 
                l(1) =   0
                l(2) =   0
                l(3) =   1
                l(4) =   1
                l(5) =   2
                l(6) =   2
     Q(r) pseudized with 0 coefficients 


     atomic species   valence    mass     pseudopotential
        Pb            14.00   207.20000     Pb( 1.00)

     48 Sym. Ops., with inversion, found



   Cartesian axes

     site n.     atom                  positions (alat units)
         1           Pb  tau(   1) = (   0.0000000   0.0000000   0.0000000  )

     number of k points=    16  Methfessel-Paxton smearing, width (Ry)=  0.0500
                       cart. coord. in units 2pi/alat
        k(    1) = (   0.0000000   0.0000000   0.0000000), wk =   0.0092593
        k(    2) = (  -0.1666667   0.1666667  -0.1666667), wk =   0.0740741
        k(    3) = (  -0.3333333   0.3333333  -0.3333333), wk =   0.0740741
        k(    4) = (   0.5000000  -0.5000000   0.5000000), wk =   0.0370370
        k(    5) = (   0.0000000   0.3333333   0.0000000), wk =   0.0555556
        k(    6) = (  -0.1666667   0.5000000  -0.1666667), wk =   0.2222222
        k(    7) = (   0.6666667  -0.3333333   0.6666667), wk =   0.2222222
        k(    8) = (   0.5000000  -0.1666667   0.5000000), wk =   0.2222222
        k(    9) = (   0.3333333   0.0000000   0.3333333), wk =   0.1111111
        k(   10) = (   0.0000000   0.6666667   0.0000000), wk =   0.0555556
        k(   11) = (   0.8333333  -0.1666667   0.8333333), wk =   0.2222222
        k(   12) = (   0.6666667  -0.0000000   0.6666667), wk =   0.1111111
        k(   13) = (   0.0000000  -1.0000000   0.0000000), wk =   0.0277778
        k(   14) = (   0.6666667  -0.3333333   1.0000000), wk =   0.2222222
        k(   15) = (   0.5000000  -0.1666667   0.8333333), wk =   0.2222222
        k(   16) = (  -0.3333333  -1.0000000   0.0000000), wk =   0.1111111

     Dense  grid:     9377 G-vectors     FFT dimensions: (  30,  30,  30)

     Smooth grid:     3287 G-vectors     FFT dimensions: (  24,  24,  24)

     Estimated max dynamical RAM per process >      35.42 MB

     Initial potential from superposition of free atoms

     starting charge   13.99765, renormalised to   14.00000
     Starting wfcs are    9 randomized atomic wfcs +    2 random wfcs

     total cpu time spent up to now is        1.3 secs

     Self-consistent Calculation

     iteration #  1     ecut=    25.00 Ry     beta= 0.70
     Davidson diagonalization with overlap
     ethr =  1.00E-02,  avg # of iterations =  5.4

     total cpu time spent up to now is        1.6 secs

     total energy              =    -133.42413543 Ry
     Harris-Foulkes estimate   =    -133.52109171 Ry
     estimated scf accuracy    <       0.16061460 Ry

     iteration #  2     ecut=    25.00 Ry     beta= 0.70
     Davidson diagonalization with overlap
     ethr =  1.15E-03,  avg # of iterations =  2.0

     total cpu time spent up to now is        1.9 secs

     total energy              =    -133.46289009 Ry
     Harris-Foulkes estimate   =    -133.46939673 Ry
     estimated scf accuracy    <       0.01386195 Ry

     iteration #  3     ecut=    25.00 Ry     beta= 0.70
     Davidson diagonalization with overlap
     ethr =  9.90E-05,  avg # of iterations =  2.1

     total cpu time spent up to now is        2.2 secs

     total energy              =    -133.46562303 Ry
     Harris-Foulkes estimate   =    -133.46544854 Ry
     estimated scf accuracy    <       0.00059390 Ry

     iteration #  4     ecut=    25.00 Ry     beta= 0.70
     Davidson diagonalization with overlap
     ethr =  4.24E-06,  avg # of iterations =  2.5

     total cpu time spent up to now is        2.4 secs

     total energy              =    -133.46567180 Ry
     Harris-Foulkes estimate   =    -133.46566982 Ry
     estimated scf accuracy    <       0.00000469 Ry

     iteration #  5     ecut=    25.00 Ry     beta= 0.70
     Davidson diagonalization with overlap
     ethr =  3.35E-08,  avg # of iterations =  2.3

     total cpu time spent up to now is        2.7 secs

     total energy              =    -133.46567373 Ry
     Harris-Foulkes estimate   =    -133.46567403 Ry
     estimated scf accuracy    <       0.00000061 Ry

     iteration #  6     ecut=    25.00 Ry     beta= 0.70
     Davidson diagonalization with overlap
     ethr =  4.36E-09,  avg # of iterations =  2.0

     total cpu time spent up to now is        2.9 secs

     total energy              =    -133.46567380 Ry
     Harris-Foulkes estimate   =    -133.46567380 Ry
     estimated scf accuracy    <       0.00000002 Ry

     iteration #  7     ecut=    25.00 Ry     beta= 0.70
     Davidson diagonalization with overlap
     ethr =  1.17E-10,  avg # of iterations =  2.1

     total cpu time spent up to now is        3.2 secs

     End of self-consistent calculation

          k = 0.0000 0.0000 0.0000 (   411 PWs)   bands (ev):

    -4.1024  -4.1024  -3.7986  -3.7986  -3.7986  -0.3004  19.4195  19.4195
    19.4195  22.1520  23.6569

          k =-0.1667 0.1667-0.1667 (   408 PWs)   bands (ev):

    -3.9471  -3.9471  -3.7978  -3.6708  -3.6708   0.2536  15.2383  18.8493
    18.8493  21.5429  25.0163

          k =-0.3333 0.3333-0.3333 (   419 PWs)   bands (ev):

    -4.3869  -4.1618  -4.1618  -3.9985  -3.9985   1.8754  10.2234  17.9225
    17.9225  21.2525  22.9267

          k = 0.5000-0.5000 0.5000 (   410 PWs)   bands (ev):

    -4.1710  -4.1710  -3.7443  -3.7443  -3.7170   3.5320   7.4264  17.5209
    17.5209  21.5531  21.8993

          k = 0.0000 0.3333 0.0000 (   407 PWs)   bands (ev):

    -4.0181  -4.0054  -3.6402  -3.6402  -3.6165   0.4359  16.3584  17.2742
    17.2742  20.7020  22.1427

          k =-0.1667 0.5000-0.1667 (   416 PWs)   bands (ev):

    -4.3512  -4.1443  -4.0857  -3.8519  -3.8085   1.7071  12.0136  16.1248
    16.2164  20.1566  22.5716

          k = 0.6667-0.3333 0.6667 (   409 PWs)   bands (ev):

    -4.1373  -3.9964  -3.9717  -3.7777  -3.4918   3.6066   8.3783  14.5974
    16.2439  19.8831  24.7391

          k = 0.5000-0.1667 0.5000 (   418 PWs)   bands (ev):

    -4.3365  -4.1913  -4.1406  -4.0189  -3.9272   2.9914   9.3687  13.9311
    17.3906  20.6307  23.9892

          k = 0.3333 0.0000 0.3333 (   405 PWs)   bands (ev):

    -4.0979  -3.9158  -3.8085  -3.4571  -3.4030   1.1681  13.1873  14.9678
    19.0456  22.4422  23.1985

          k = 0.0000 0.6667 0.0000 (   432 PWs)   bands (ev):

    -4.9042  -4.6343  -4.2973  -4.2973  -4.2025   2.5904  11.7630  14.7976
    14.7976  18.4998  19.2941

          k = 0.8333-0.1667 0.8333 (   417 PWs)   bands (ev):

    -4.3608  -4.1726  -4.1180  -3.9579  -3.8003   4.2154   9.5633  12.2936
    14.5394  18.5440  21.5686

          k = 0.6667-0.0000 0.6667 (   403 PWs)   bands (ev):

    -3.8317  -3.7678  -3.6970  -3.6631  -3.5923   4.4671   9.9722  10.2236
    15.5646  19.2301  26.3078

          k = 0.0000-1.0000 0.0000 (   412 PWs)   bands (ev):

    -4.3635  -4.3216  -3.6405  -3.6405  -3.4608   4.9448   8.3836  13.8777
    13.8777  17.5855  18.9800

          k = 0.6667-0.3333 1.0000 (   413 PWs)   bands (ev):

    -4.2356  -4.1810  -4.0450  -3.8388  -3.6662   3.2001  10.6623  12.6058
    14.9777  21.4232  22.5811

          k = 0.5000-0.1667 0.8333 (   416 PWs)   bands (ev):

    -4.3931  -4.1386  -4.0065  -3.9959  -3.8208   4.4834   9.1016  11.8212
    13.9321  21.6385  23.7828

          k =-0.3333-1.0000 0.0000 (   418 PWs)   bands (ev):

    -4.2699  -4.2331  -4.0446  -4.0214  -3.9877   5.0065   9.3122  11.7440
    12.4601  21.0289  22.0624

     the Fermi energy is    11.9777 ev

!    total energy              =    -133.46567380 Ry
     Harris-Foulkes estimate   =    -133.46567380 Ry
     estimated scf accuracy    <          2.6E-10 Ry

     The total energy is the sum of the following terms:

     one-electron contribution =     -28.64873788 Ry
     hartree contribution      =      24.97227810 Ry
     xc contribution           =     -32.34714883 Ry
     ewald contribution        =     -97.43857725 Ry
     smearing contrib. (-TS)   =      -0.00348794 Ry

     convergence has been achieved in   7 iterations

     Writing output data file Pb.save/

     init_run     :      0.55s CPU      0.57s WALL (       1 calls)
     electrons    :      1.80s CPU      1.83s WALL (       1 calls)

     Called by init_run:
     wfcinit      :      0.06s CPU      0.06s WALL (       1 calls)
     potinit      :      0.03s CPU      0.03s WALL (       1 calls)
     hinit0       :      0.44s CPU      0.44s WALL (       1 calls)

     Called by electrons:
     c_bands      :      1.22s CPU      1.22s WALL (       7 calls)
     sum_band     :      0.32s CPU      0.33s WALL (       7 calls)
     v_of_rho     :      0.13s CPU      0.13s WALL (       8 calls)
     newd         :      0.14s CPU      0.15s WALL (       8 calls)
     mix_rho      :      0.01s CPU      0.01s WALL (       7 calls)

     Called by c_bands:
     init_us_2    :      0.03s CPU      0.03s WALL (     240 calls)
     cegterg      :      1.16s CPU      1.16s WALL (     112 calls)

     Called by sum_band:
     sum_band:bec :      0.00s CPU      0.00s WALL (     112 calls)
     addusdens    :      0.12s CPU      0.13s WALL (       7 calls)

     Called by *egterg:
     h_psi        :      0.90s CPU      0.90s WALL (     421 calls)
     s_psi        :      0.04s CPU      0.04s WALL (     421 calls)
     g_psi        :      0.01s CPU      0.01s WALL (     293 calls)
     cdiaghg      :      0.08s CPU      0.08s WALL (     405 calls)

     Called by h_psi:
     h_psi:pot    :      0.90s CPU      0.90s WALL (     421 calls)
     h_psi:calbec :      0.04s CPU      0.04s WALL (     421 calls)
     vloc_psi     :      0.81s CPU      0.81s WALL (     421 calls)
     add_vuspsi   :      0.04s CPU      0.04s WALL (     421 calls)

     General routines
     calbec       :      0.06s CPU      0.06s WALL (     533 calls)
     fft          :      0.11s CPU      0.11s WALL (     102 calls)
     ffts         :      0.01s CPU      0.01s WALL (      15 calls)
     fftw         :      0.81s CPU      0.81s WALL (    7834 calls)
     interpolate  :      0.02s CPU      0.02s WALL (       8 calls)

     Parallel routines

     PWSCF        :      3.13s CPU      3.18s WALL


   This run was terminated on:  16:46:16  30Jun2021            

=------------------------------------------------------------------------------=
   JOB DONE.
=------------------------------------------------------------------------------=
