
     Program PWSCF v.6.4.1 starts on 30Jun2021 at 16:46:20 

     This program is part of the open-source Quantum ESPRESSO suite
     for quantum simulation of materials; please cite
         "P. Giannozzi et al., J. Phys.:Condens. Matter 21 395502 (2009);
         "P. Giannozzi et al., J. Phys.:Condens. Matter 29 465901 (2017);
          URL http://www.quantum-espresso.org", 
     in publications or presentations arising from this work. More details at
     http://www.quantum-espresso.org/quote

     Parallel version (MPI), running on     1 processors

     MPI processes distributed on     1 nodes
     Waiting for input...
     Reading input from standard input

     Current dimensions of program PWSCF are:
     Max number of different atomic species (ntypx) = 10
     Max number of k-points (npk) =  40000
     Max angular momentum in pseudopotentials (lmaxx) =  3
               file Pb.pbe-dn-rrkjus_psl.1.0.0.UPF: wavefunction(s)  6S 5D renormalized

     Subspace diagonalization in iterative solution of the eigenvalue problem:
     a serial algorithm will be used


     G-vector sticks info
     --------------------
     sticks:   dense  smooth     PW     G-vecs:    dense   smooth      PW
     Sum         823     421    127                15593     5577     965


     Title: 
     Lead                                                                       


     bravais-lattice index     =            2
     lattice parameter (alat)  =       9.2226  a.u.
     unit-cell volume          =     196.1075 (a.u.)^3
     number of atoms/cell      =            1
     number of atomic types    =            1
     number of electrons       =        14.00
     number of Kohn-Sham states=           11
     kinetic-energy cutoff     =      35.0000  Ry
     charge density cutoff     =     280.0000  Ry
     convergence threshold     =      1.0E-09
     mixing beta               =       0.7000
     number of iterations used =            8  plain     mixing
     Exchange-correlation      = PBE ( 1  4  3  4 0 0)

     celldm(1)=   9.222558  celldm(2)=   0.000000  celldm(3)=   0.000000
     celldm(4)=   0.000000  celldm(5)=   0.000000  celldm(6)=   0.000000

     crystal axes: (cart. coord. in units of alat)
               a(1) = (  -0.500000   0.000000   0.500000 )  
               a(2) = (   0.000000   0.500000   0.500000 )  
               a(3) = (  -0.500000   0.500000   0.000000 )  

     reciprocal axes: (cart. coord. in units 2 pi/alat)
               b(1) = ( -1.000000 -1.000000  1.000000 )  
               b(2) = (  1.000000  1.000000  1.000000 )  
               b(3) = ( -1.000000  1.000000 -1.000000 )  


     PseudoPot. # 1 for Pb read from file:
     /home/elena/qe-6.7/pseudo/Pb.pbe-dn-rrkjus_psl.1.0.0.UPF
     MD5 check sum: 1cf8f5e18580e6a90a35f98a53d336de
     Pseudo is Ultrasoft + core correction, Zval = 14.0
     Generated using "atomic" code by A. Dal Corso v.6.3
     Using radial grid of 1281 points,  6 beta functions with: 
                l(1) =   0
                l(2) =   0
                l(3) =   1
                l(4) =   1
                l(5) =   2
                l(6) =   2
     Q(r) pseudized with 0 coefficients 


     atomic species   valence    mass     pseudopotential
        Pb            14.00   207.20000     Pb( 1.00)

     48 Sym. Ops., with inversion, found



   Cartesian axes

     site n.     atom                  positions (alat units)
         1           Pb  tau(   1) = (   0.0000000   0.0000000   0.0000000  )

     number of k points=    16  Methfessel-Paxton smearing, width (Ry)=  0.0500
                       cart. coord. in units 2pi/alat
        k(    1) = (   0.0000000   0.0000000   0.0000000), wk =   0.0092593
        k(    2) = (  -0.1666667   0.1666667  -0.1666667), wk =   0.0740741
        k(    3) = (  -0.3333333   0.3333333  -0.3333333), wk =   0.0740741
        k(    4) = (   0.5000000  -0.5000000   0.5000000), wk =   0.0370370
        k(    5) = (   0.0000000   0.3333333   0.0000000), wk =   0.0555556
        k(    6) = (  -0.1666667   0.5000000  -0.1666667), wk =   0.2222222
        k(    7) = (   0.6666667  -0.3333333   0.6666667), wk =   0.2222222
        k(    8) = (   0.5000000  -0.1666667   0.5000000), wk =   0.2222222
        k(    9) = (   0.3333333   0.0000000   0.3333333), wk =   0.1111111
        k(   10) = (   0.0000000   0.6666667   0.0000000), wk =   0.0555556
        k(   11) = (   0.8333333  -0.1666667   0.8333333), wk =   0.2222222
        k(   12) = (   0.6666667  -0.0000000   0.6666667), wk =   0.1111111
        k(   13) = (   0.0000000  -1.0000000   0.0000000), wk =   0.0277778
        k(   14) = (   0.6666667  -0.3333333   1.0000000), wk =   0.2222222
        k(   15) = (   0.5000000  -0.1666667   0.8333333), wk =   0.2222222
        k(   16) = (  -0.3333333  -1.0000000   0.0000000), wk =   0.1111111

     Dense  grid:    15593 G-vectors     FFT dimensions: (  36,  36,  36)

     Smooth grid:     5577 G-vectors     FFT dimensions: (  25,  25,  25)

     Estimated max dynamical RAM per process >      58.22 MB

     Initial potential from superposition of free atoms

     starting charge   13.99765, renormalised to   14.00000
     Starting wfcs are    9 randomized atomic wfcs +    2 random wfcs

     total cpu time spent up to now is        1.4 secs

     Self-consistent Calculation

     iteration #  1     ecut=    35.00 Ry     beta= 0.70
     Davidson diagonalization with overlap
     ethr =  1.00E-02,  avg # of iterations =  5.1

     Threshold (ethr) on eigenvalues was too large:
     Diagonalizing with lowered threshold

     Davidson diagonalization with overlap
     ethr =  2.54E-05,  avg # of iterations =  3.8

     total cpu time spent up to now is        2.2 secs

     total energy              =    -135.32251406 Ry
     Harris-Foulkes estimate   =    -135.32346742 Ry
     estimated scf accuracy    <       0.00364394 Ry

     iteration #  2     ecut=    35.00 Ry     beta= 0.70
     Davidson diagonalization with overlap
     ethr =  2.60E-05,  avg # of iterations =  2.0

     total cpu time spent up to now is        2.6 secs

     total energy              =    -135.32355085 Ry
     Harris-Foulkes estimate   =    -135.32366618 Ry
     estimated scf accuracy    <       0.00041262 Ry

     iteration #  3     ecut=    35.00 Ry     beta= 0.70
     Davidson diagonalization with overlap
     ethr =  2.95E-06,  avg # of iterations =  2.2

     total cpu time spent up to now is        2.9 secs

     total energy              =    -135.32365877 Ry
     Harris-Foulkes estimate   =    -135.32363111 Ry
     estimated scf accuracy    <       0.00001791 Ry

     iteration #  4     ecut=    35.00 Ry     beta= 0.70
     Davidson diagonalization with overlap
     ethr =  1.28E-07,  avg # of iterations =  1.7

     total cpu time spent up to now is        3.3 secs

     total energy              =    -135.32365986 Ry
     Harris-Foulkes estimate   =    -135.32365987 Ry
     estimated scf accuracy    <       0.00000004 Ry

     iteration #  5     ecut=    35.00 Ry     beta= 0.70
     Davidson diagonalization with overlap
     ethr =  2.85E-10,  avg # of iterations =  2.9

     total cpu time spent up to now is        3.7 secs

     total energy              =    -135.32365989 Ry
     Harris-Foulkes estimate   =    -135.32365989 Ry
     estimated scf accuracy    <          1.6E-09 Ry

     iteration #  6     ecut=    35.00 Ry     beta= 0.70
     Davidson diagonalization with overlap
     ethr =  1.13E-11,  avg # of iterations =  2.0

     total cpu time spent up to now is        4.0 secs

     End of self-consistent calculation

          k = 0.0000 0.0000 0.0000 (   701 PWs)   bands (ev):

    -5.1352  -5.1352  -5.1352  -4.9939  -4.9939  -0.1787  19.6331  19.6331
    19.6331  21.9875  23.7652

          k =-0.1667 0.1667-0.1667 (   673 PWs)   bands (ev):

    -5.0955  -5.0624  -5.0624  -4.9506  -4.9506   0.3812  15.3518  19.0306
    19.0306  21.3736  24.9206

          k =-0.3333 0.3333-0.3333 (   685 PWs)   bands (ev):

    -5.1505  -5.0819  -5.0819  -4.8781  -4.8781   2.0254  10.3056  18.1059
    18.1059  21.1274  22.8293

          k = 0.5000-0.5000 0.5000 (   700 PWs)   bands (ev):

    -5.1901  -5.1123  -5.1123  -4.8540  -4.8540   3.7034   7.4486  17.7094
    17.7094  21.3969  21.7400

          k = 0.0000 0.3333 0.0000 (   681 PWs)   bands (ev):

    -5.1611  -5.0313  -5.0313  -5.0094  -4.9438   0.5668  16.5888  17.3851
    17.3851  20.4470  21.9371

          k =-0.1667 0.5000-0.1667 (   680 PWs)   bands (ev):

    -5.1628  -5.0505  -5.0064  -4.9647  -4.8582   1.8554  12.1350  16.2382
    16.3336  19.9526  22.4362

          k = 0.6667-0.3333 0.6667 (   688 PWs)   bands (ev):

    -5.1647  -5.0894  -5.0294  -4.9105  -4.8301   3.8009   8.4123  14.6868
    16.3651  19.6568  24.6649

          k = 0.5000-0.1667 0.5000 (   684 PWs)   bands (ev):

    -5.1123  -5.0937  -5.0294  -4.8982  -4.8811   3.1713   9.4335  14.0081
    17.5477  20.4506  23.9091

          k = 0.3333 0.0000 0.3333 (   682 PWs)   bands (ev):

    -5.1131  -5.0626  -5.0347  -4.9756  -4.9144   1.3080  13.3350  14.9737
    19.2692  22.2852  23.0833

          k = 0.0000 0.6667 0.0000 (   693 PWs)   bands (ev):

    -5.2580  -5.1549  -4.8925  -4.8858  -4.8858   2.7612  11.9434  14.9085
    14.9085  18.3440  19.1148

          k = 0.8333-0.1667 0.8333 (   686 PWs)   bands (ev):

    -5.2350  -5.1453  -4.9027  -4.8674  -4.8122   4.4402   9.6591  12.3018
    14.6495  18.3404  21.3940

          k = 0.6667-0.0000 0.6667 (   680 PWs)   bands (ev):

    -5.1624  -5.0240  -4.9610  -4.9244  -4.8568   4.7178   9.9763  10.2380
    15.6758  18.9775  26.1583

          k = 0.0000-1.0000 0.0000 (   692 PWs)   bands (ev):

    -5.2919  -5.2524  -4.8381  -4.7960  -4.7960   5.2165   8.4270  13.9871
    13.9871  17.3966  18.6818

          k = 0.6667-0.3333 1.0000 (   687 PWs)   bands (ev):

    -5.1457  -5.1046  -5.0063  -4.8915  -4.8706   3.3809  10.7891  12.6336
    15.0079  21.3606  22.3885

          k = 0.5000-0.1667 0.8333 (   692 PWs)   bands (ev):

    -5.1247  -5.1060  -5.0153  -4.9435  -4.8347   4.7415   9.1111  11.8811
    13.9461  21.5801  23.6007

          k =-0.3333-1.0000 0.0000 (   690 PWs)   bands (ev):

    -5.1743  -5.1589  -4.9466  -4.8921  -4.8061   5.3015   9.3452  11.7755
    12.4456  20.9687  21.8643

     the Fermi energy is    12.0405 ev

!    total energy              =    -135.32365989 Ry
     Harris-Foulkes estimate   =    -135.32365989 Ry
     estimated scf accuracy    <          2.5E-11 Ry

     The total energy is the sum of the following terms:

     one-electron contribution =     -31.33730048 Ry
     hartree contribution      =      26.07874430 Ry
     xc contribution           =     -32.62263304 Ry
     ewald contribution        =     -97.43857717 Ry
     smearing contrib. (-TS)   =      -0.00389351 Ry

     convergence has been achieved in   6 iterations

     Writing output data file Pb.save/

     init_run     :      0.66s CPU      0.69s WALL (       1 calls)
     electrons    :      2.35s CPU      2.57s WALL (       1 calls)

     Called by init_run:
     wfcinit      :      0.07s CPU      0.08s WALL (       1 calls)
     potinit      :      0.02s CPU      0.03s WALL (       1 calls)
     hinit0       :      0.53s CPU      0.53s WALL (       1 calls)

     Called by electrons:
     c_bands      :      1.57s CPU      1.59s WALL (       7 calls)
     sum_band     :      0.47s CPU      0.57s WALL (       7 calls)
     v_of_rho     :      0.14s CPU      0.15s WALL (       7 calls)
     newd         :      0.20s CPU      0.30s WALL (       7 calls)
     mix_rho      :      0.01s CPU      0.01s WALL (       7 calls)

     Called by c_bands:
     init_us_2    :      0.04s CPU      0.04s WALL (     240 calls)
     cegterg      :      1.47s CPU      1.49s WALL (     112 calls)

     Called by sum_band:
     sum_band:bec :      0.00s CPU      0.00s WALL (     112 calls)
     addusdens    :      0.24s CPU      0.33s WALL (       7 calls)

     Called by *egterg:
     h_psi        :      1.05s CPU      1.07s WALL (     443 calls)
     s_psi        :      0.07s CPU      0.07s WALL (     443 calls)
     g_psi        :      0.01s CPU      0.01s WALL (     315 calls)
     cdiaghg      :      0.09s CPU      0.09s WALL (     411 calls)

     Called by h_psi:
     h_psi:pot    :      1.05s CPU      1.07s WALL (     443 calls)
     h_psi:calbec :      0.08s CPU      0.08s WALL (     443 calls)
     vloc_psi     :      0.89s CPU      0.91s WALL (     443 calls)
     add_vuspsi   :      0.07s CPU      0.07s WALL (     443 calls)

     General routines
     calbec       :      0.10s CPU      0.10s WALL (     555 calls)
     fft          :      0.08s CPU      0.08s WALL (      90 calls)
     ffts         :      0.00s CPU      0.00s WALL (      14 calls)
     fftw         :      0.88s CPU      0.90s WALL (    8004 calls)
     interpolate  :      0.01s CPU      0.01s WALL (       7 calls)

     Parallel routines

     PWSCF        :      3.77s CPU      4.02s WALL


   This run was terminated on:  16:46:24  30Jun2021            

=------------------------------------------------------------------------------=
   JOB DONE.
=------------------------------------------------------------------------------=
