
     Program PWSCF v.6.4.1 starts on 30Jun2021 at 16:46:16 

     This program is part of the open-source Quantum ESPRESSO suite
     for quantum simulation of materials; please cite
         "P. Giannozzi et al., J. Phys.:Condens. Matter 21 395502 (2009);
         "P. Giannozzi et al., J. Phys.:Condens. Matter 29 465901 (2017);
          URL http://www.quantum-espresso.org", 
     in publications or presentations arising from this work. More details at
     http://www.quantum-espresso.org/quote

     Parallel version (MPI), running on     1 processors

     MPI processes distributed on     1 nodes
     Waiting for input...
     Reading input from standard input

     Current dimensions of program PWSCF are:
     Max number of different atomic species (ntypx) = 10
     Max number of k-points (npk) =  40000
     Max angular momentum in pseudopotentials (lmaxx) =  3
               file Pb.pbe-dn-rrkjus_psl.1.0.0.UPF: wavefunction(s)  6S 5D renormalized

     Subspace diagonalization in iterative solution of the eigenvalue problem:
     a serial algorithm will be used


     G-vector sticks info
     --------------------
     sticks:   dense  smooth     PW     G-vecs:    dense   smooth      PW
     Sum         703     349    121                12339     4285     869


     Title: 
     Lead                                                                       


     bravais-lattice index     =            2
     lattice parameter (alat)  =       9.2226  a.u.
     unit-cell volume          =     196.1075 (a.u.)^3
     number of atoms/cell      =            1
     number of atomic types    =            1
     number of electrons       =        14.00
     number of Kohn-Sham states=           11
     kinetic-energy cutoff     =      30.0000  Ry
     charge density cutoff     =     240.0000  Ry
     convergence threshold     =      1.0E-09
     mixing beta               =       0.7000
     number of iterations used =            8  plain     mixing
     Exchange-correlation      = PBE ( 1  4  3  4 0 0)

     celldm(1)=   9.222558  celldm(2)=   0.000000  celldm(3)=   0.000000
     celldm(4)=   0.000000  celldm(5)=   0.000000  celldm(6)=   0.000000

     crystal axes: (cart. coord. in units of alat)
               a(1) = (  -0.500000   0.000000   0.500000 )  
               a(2) = (   0.000000   0.500000   0.500000 )  
               a(3) = (  -0.500000   0.500000   0.000000 )  

     reciprocal axes: (cart. coord. in units 2 pi/alat)
               b(1) = ( -1.000000 -1.000000  1.000000 )  
               b(2) = (  1.000000  1.000000  1.000000 )  
               b(3) = ( -1.000000  1.000000 -1.000000 )  


     PseudoPot. # 1 for Pb read from file:
     /home/elena/qe-6.7/pseudo/Pb.pbe-dn-rrkjus_psl.1.0.0.UPF
     MD5 check sum: 1cf8f5e18580e6a90a35f98a53d336de
     Pseudo is Ultrasoft + core correction, Zval = 14.0
     Generated using "atomic" code by A. Dal Corso v.6.3
     Using radial grid of 1281 points,  6 beta functions with: 
                l(1) =   0
                l(2) =   0
                l(3) =   1
                l(4) =   1
                l(5) =   2
                l(6) =   2
     Q(r) pseudized with 0 coefficients 


     atomic species   valence    mass     pseudopotential
        Pb            14.00   207.20000     Pb( 1.00)

     48 Sym. Ops., with inversion, found



   Cartesian axes

     site n.     atom                  positions (alat units)
         1           Pb  tau(   1) = (   0.0000000   0.0000000   0.0000000  )

     number of k points=    16  Methfessel-Paxton smearing, width (Ry)=  0.0500
                       cart. coord. in units 2pi/alat
        k(    1) = (   0.0000000   0.0000000   0.0000000), wk =   0.0092593
        k(    2) = (  -0.1666667   0.1666667  -0.1666667), wk =   0.0740741
        k(    3) = (  -0.3333333   0.3333333  -0.3333333), wk =   0.0740741
        k(    4) = (   0.5000000  -0.5000000   0.5000000), wk =   0.0370370
        k(    5) = (   0.0000000   0.3333333   0.0000000), wk =   0.0555556
        k(    6) = (  -0.1666667   0.5000000  -0.1666667), wk =   0.2222222
        k(    7) = (   0.6666667  -0.3333333   0.6666667), wk =   0.2222222
        k(    8) = (   0.5000000  -0.1666667   0.5000000), wk =   0.2222222
        k(    9) = (   0.3333333   0.0000000   0.3333333), wk =   0.1111111
        k(   10) = (   0.0000000   0.6666667   0.0000000), wk =   0.0555556
        k(   11) = (   0.8333333  -0.1666667   0.8333333), wk =   0.2222222
        k(   12) = (   0.6666667  -0.0000000   0.6666667), wk =   0.1111111
        k(   13) = (   0.0000000  -1.0000000   0.0000000), wk =   0.0277778
        k(   14) = (   0.6666667  -0.3333333   1.0000000), wk =   0.2222222
        k(   15) = (   0.5000000  -0.1666667   0.8333333), wk =   0.2222222
        k(   16) = (  -0.3333333  -1.0000000   0.0000000), wk =   0.1111111

     Dense  grid:    12339 G-vectors     FFT dimensions: (  36,  36,  36)

     Smooth grid:     4285 G-vectors     FFT dimensions: (  24,  24,  24)

     Estimated max dynamical RAM per process >      47.01 MB

     Initial potential from superposition of free atoms

     starting charge   13.99765, renormalised to   14.00000
     Starting wfcs are    9 randomized atomic wfcs +    2 random wfcs

     total cpu time spent up to now is        1.4 secs

     Self-consistent Calculation

     iteration #  1     ecut=    30.00 Ry     beta= 0.70
     Davidson diagonalization with overlap
     ethr =  1.00E-02,  avg # of iterations =  5.4

     Threshold (ethr) on eigenvalues was too large:
     Diagonalizing with lowered threshold

     Davidson diagonalization with overlap
     ethr =  1.34E-04,  avg # of iterations =  2.1

     total cpu time spent up to now is        2.0 secs

     total energy              =    -134.91925430 Ry
     Harris-Foulkes estimate   =    -134.92599583 Ry
     estimated scf accuracy    <       0.01858248 Ry

     iteration #  2     ecut=    30.00 Ry     beta= 0.70
     Davidson diagonalization with overlap
     ethr =  1.33E-04,  avg # of iterations =  2.0

     total cpu time spent up to now is        2.3 secs

     total energy              =    -134.92425475 Ry
     Harris-Foulkes estimate   =    -134.92483464 Ry
     estimated scf accuracy    <       0.00194049 Ry

     iteration #  3     ecut=    30.00 Ry     beta= 0.70
     Davidson diagonalization with overlap
     ethr =  1.39E-05,  avg # of iterations =  2.4

     total cpu time spent up to now is        2.6 secs

     total energy              =    -134.92472719 Ry
     Harris-Foulkes estimate   =    -134.92462439 Ry
     estimated scf accuracy    <       0.00008757 Ry

     iteration #  4     ecut=    30.00 Ry     beta= 0.70
     Davidson diagonalization with overlap
     ethr =  6.26E-07,  avg # of iterations =  2.0

     total cpu time spent up to now is        2.9 secs

     total energy              =    -134.92473494 Ry
     Harris-Foulkes estimate   =    -134.92473491 Ry
     estimated scf accuracy    <       0.00000060 Ry

     iteration #  5     ecut=    30.00 Ry     beta= 0.70
     Davidson diagonalization with overlap
     ethr =  4.31E-09,  avg # of iterations =  2.2

     total cpu time spent up to now is        3.2 secs

     total energy              =    -134.92473519 Ry
     Harris-Foulkes estimate   =    -134.92473529 Ry
     estimated scf accuracy    <       0.00000018 Ry

     iteration #  6     ecut=    30.00 Ry     beta= 0.70
     Davidson diagonalization with overlap
     ethr =  1.27E-09,  avg # of iterations =  2.0

     total cpu time spent up to now is        3.5 secs

     total energy              =    -134.92473521 Ry
     Harris-Foulkes estimate   =    -134.92473522 Ry
     estimated scf accuracy    <          1.9E-09 Ry

     iteration #  7     ecut=    30.00 Ry     beta= 0.70
     Davidson diagonalization with overlap
     ethr =  1.35E-11,  avg # of iterations =  2.1

     total cpu time spent up to now is        3.9 secs

     End of self-consistent calculation

          k = 0.0000 0.0000 0.0000 (   537 PWs)   bands (ev):

    -4.8930  -4.8930  -4.8930  -4.7151  -4.7151  -0.2013  19.5805  19.5805
    19.5805  22.0223  23.7554

          k =-0.1667 0.1667-0.1667 (   540 PWs)   bands (ev):

    -5.0232  -4.8359  -4.8359  -4.6664  -4.6664   0.3568  15.3204  18.9848
    18.9848  21.3967  24.9363

          k =-0.3333 0.3333-0.3333 (   555 PWs)   bands (ev):

    -4.9842  -4.9842  -4.9410  -4.6858  -4.6858   1.9978  10.2867  18.0603
    18.0603  21.1550  22.8497

          k = 0.5000-0.5000 0.5000 (   544 PWs)   bands (ev):

    -4.9797  -4.9233  -4.9233  -4.4733  -4.4733   3.6674   7.4395  17.6634
    17.6634  21.4272  21.7579

          k = 0.0000 0.3333 0.0000 (   548 PWs)   bands (ev):

    -4.9534  -4.8896  -4.8818  -4.8818  -4.6567   0.5418  16.5390  17.3523
    17.3523  20.4882  21.9613

          k =-0.1667 0.5000-0.1667 (   545 PWs)   bands (ev):

    -5.0055  -4.8586  -4.7807  -4.6918  -4.6068   1.8278  12.1076  16.2094
    16.3032  19.9880  22.4528

          k = 0.6667-0.3333 0.6667 (   540 PWs)   bands (ev):

    -4.9541  -4.8158  -4.7646  -4.5819  -4.5173   3.7648   8.4027  14.6665
    16.3324  19.6911  24.6765

          k = 0.5000-0.1667 0.5000 (   549 PWs)   bands (ev):

    -4.9729  -4.8958  -4.8732  -4.6317  -4.6181   3.1385   9.4179  13.9897
    17.5072  20.4768  23.9237

          k = 0.3333 0.0000 0.3333 (   554 PWs)   bands (ev):

    -5.0483  -4.9667  -4.8793  -4.8311  -4.6195   1.2819  13.3009  14.9560
    19.2127  22.3068  23.0952

          k = 0.0000 0.6667 0.0000 (   556 PWs)   bands (ev):

    -5.2005  -4.9951  -4.6722  -4.6722  -4.6572   2.7294  11.9050  14.8811
    14.8811  18.3738  19.1413

          k = 0.8333-0.1667 0.8333 (   536 PWs)   bands (ev):

    -5.0748  -4.8686  -4.5598  -4.4800  -4.3878   4.3981   9.6370  12.2979
    14.6223  18.3725  21.4236

          k = 0.6667-0.0000 0.6667 (   528 PWs)   bands (ev):

    -4.8779  -4.6238  -4.5987  -4.5375  -4.5024   4.6710   9.9752  10.2355
    15.6475  19.0231  26.1865

          k = 0.0000-1.0000 0.0000 (   524 PWs)   bands (ev):

    -5.1436  -4.7890  -4.3165  -4.2884  -4.2884   5.1717   8.4140  13.9590
    13.9590  17.4560  18.7237

          k = 0.6667-0.3333 1.0000 (   549 PWs)   bands (ev):

    -4.9527  -4.9469  -4.7748  -4.6496  -4.6365   3.3468  10.7609  12.6235
    14.9937  21.3633  22.4174

          k = 0.5000-0.1667 0.8333 (   544 PWs)   bands (ev):

    -4.9663  -4.8462  -4.6984  -4.6560  -4.5671   4.6943   9.1085  11.8671
    13.9379  21.5837  23.6321

          k =-0.3333-1.0000 0.0000 (   534 PWs)   bands (ev):

    -5.0044  -4.7388  -4.5614  -4.5549  -4.4285   5.2484   9.3377  11.7628
    12.4551  20.9862  21.8931

     the Fermi energy is    12.0257 ev

!    total energy              =    -134.92473522 Ry
     Harris-Foulkes estimate   =    -134.92473522 Ry
     estimated scf accuracy    <          2.5E-11 Ry

     The total energy is the sum of the following terms:

     one-electron contribution =     -30.77286786 Ry
     hartree contribution      =      25.86675680 Ry
     xc contribution           =     -32.57624448 Ry
     ewald contribution        =     -97.43857719 Ry
     smearing contrib. (-TS)   =      -0.00380249 Ry

     convergence has been achieved in   7 iterations

     Writing output data file Pb.save/

     init_run     :      0.62s CPU      0.63s WALL (       1 calls)
     electrons    :      2.33s CPU      2.47s WALL (       1 calls)

     Called by init_run:
     wfcinit      :      0.07s CPU      0.07s WALL (       1 calls)
     potinit      :      0.03s CPU      0.03s WALL (       1 calls)
     hinit0       :      0.49s CPU      0.49s WALL (       1 calls)

     Called by electrons:
     c_bands      :      1.51s CPU      1.51s WALL (       8 calls)
     sum_band     :      0.48s CPU      0.54s WALL (       8 calls)
     v_of_rho     :      0.17s CPU      0.17s WALL (       8 calls)
     newd         :      0.19s CPU      0.27s WALL (       8 calls)
     mix_rho      :      0.01s CPU      0.01s WALL (       8 calls)

     Called by c_bands:
     init_us_2    :      0.04s CPU      0.04s WALL (     272 calls)
     cegterg      :      1.42s CPU      1.43s WALL (     128 calls)

     Called by sum_band:
     sum_band:bec :      0.00s CPU      0.00s WALL (     128 calls)
     addusdens    :      0.23s CPU      0.30s WALL (       8 calls)

     Called by *egterg:
     h_psi        :      1.06s CPU      1.07s WALL (     467 calls)
     s_psi        :      0.06s CPU      0.06s WALL (     467 calls)
     g_psi        :      0.01s CPU      0.01s WALL (     323 calls)
     cdiaghg      :      0.09s CPU      0.09s WALL (     435 calls)

     Called by h_psi:
     h_psi:pot    :      1.06s CPU      1.06s WALL (     467 calls)
     h_psi:calbec :      0.06s CPU      0.06s WALL (     467 calls)
     vloc_psi     :      0.93s CPU      0.93s WALL (     467 calls)
     add_vuspsi   :      0.06s CPU      0.06s WALL (     467 calls)

     General routines
     calbec       :      0.09s CPU      0.09s WALL (     595 calls)
     fft          :      0.09s CPU      0.09s WALL (     103 calls)
     ffts         :      0.01s CPU      0.01s WALL (      16 calls)
     fftw         :      0.94s CPU      0.94s WALL (    8798 calls)
     interpolate  :      0.02s CPU      0.02s WALL (       8 calls)

     Parallel routines

     PWSCF        :      3.71s CPU      3.87s WALL


   This run was terminated on:  16:46:20  30Jun2021            

=------------------------------------------------------------------------------=
   JOB DONE.
=------------------------------------------------------------------------------=
