
     Program PWSCF v.6.4.1 starts on 30Jun2021 at 16:46:25 

     This program is part of the open-source Quantum ESPRESSO suite
     for quantum simulation of materials; please cite
         "P. Giannozzi et al., J. Phys.:Condens. Matter 21 395502 (2009);
         "P. Giannozzi et al., J. Phys.:Condens. Matter 29 465901 (2017);
          URL http://www.quantum-espresso.org", 
     in publications or presentations arising from this work. More details at
     http://www.quantum-espresso.org/quote

     Parallel version (MPI), running on     1 processors

     MPI processes distributed on     1 nodes
     Waiting for input...
     Reading input from standard input

     Current dimensions of program PWSCF are:
     Max number of different atomic species (ntypx) = 10
     Max number of k-points (npk) =  40000
     Max angular momentum in pseudopotentials (lmaxx) =  3
               file Pb.pbe-dn-rrkjus_psl.1.0.0.UPF: wavefunction(s)  6S 5D renormalized

     Subspace diagonalization in iterative solution of the eigenvalue problem:
     a serial algorithm will be used


     G-vector sticks info
     --------------------
     sticks:   dense  smooth     PW     G-vecs:    dense   smooth      PW
     Sum         931     475    151                18907     6735    1243


     Title: 
     Lead                                                                       


     bravais-lattice index     =            2
     lattice parameter (alat)  =       9.2226  a.u.
     unit-cell volume          =     196.1075 (a.u.)^3
     number of atoms/cell      =            1
     number of atomic types    =            1
     number of electrons       =        14.00
     number of Kohn-Sham states=           11
     kinetic-energy cutoff     =      40.0000  Ry
     charge density cutoff     =     320.0000  Ry
     convergence threshold     =      1.0E-09
     mixing beta               =       0.7000
     number of iterations used =            8  plain     mixing
     Exchange-correlation      = PBE ( 1  4  3  4 0 0)

     celldm(1)=   9.222558  celldm(2)=   0.000000  celldm(3)=   0.000000
     celldm(4)=   0.000000  celldm(5)=   0.000000  celldm(6)=   0.000000

     crystal axes: (cart. coord. in units of alat)
               a(1) = (  -0.500000   0.000000   0.500000 )  
               a(2) = (   0.000000   0.500000   0.500000 )  
               a(3) = (  -0.500000   0.500000   0.000000 )  

     reciprocal axes: (cart. coord. in units 2 pi/alat)
               b(1) = ( -1.000000 -1.000000  1.000000 )  
               b(2) = (  1.000000  1.000000  1.000000 )  
               b(3) = ( -1.000000  1.000000 -1.000000 )  


     PseudoPot. # 1 for Pb read from file:
     /home/elena/qe-6.7/pseudo/Pb.pbe-dn-rrkjus_psl.1.0.0.UPF
     MD5 check sum: 1cf8f5e18580e6a90a35f98a53d336de
     Pseudo is Ultrasoft + core correction, Zval = 14.0
     Generated using "atomic" code by A. Dal Corso v.6.3
     Using radial grid of 1281 points,  6 beta functions with: 
                l(1) =   0
                l(2) =   0
                l(3) =   1
                l(4) =   1
                l(5) =   2
                l(6) =   2
     Q(r) pseudized with 0 coefficients 


     atomic species   valence    mass     pseudopotential
        Pb            14.00   207.20000     Pb( 1.00)

     48 Sym. Ops., with inversion, found



   Cartesian axes

     site n.     atom                  positions (alat units)
         1           Pb  tau(   1) = (   0.0000000   0.0000000   0.0000000  )

     number of k points=    16  Methfessel-Paxton smearing, width (Ry)=  0.0500
                       cart. coord. in units 2pi/alat
        k(    1) = (   0.0000000   0.0000000   0.0000000), wk =   0.0092593
        k(    2) = (  -0.1666667   0.1666667  -0.1666667), wk =   0.0740741
        k(    3) = (  -0.3333333   0.3333333  -0.3333333), wk =   0.0740741
        k(    4) = (   0.5000000  -0.5000000   0.5000000), wk =   0.0370370
        k(    5) = (   0.0000000   0.3333333   0.0000000), wk =   0.0555556
        k(    6) = (  -0.1666667   0.5000000  -0.1666667), wk =   0.2222222
        k(    7) = (   0.6666667  -0.3333333   0.6666667), wk =   0.2222222
        k(    8) = (   0.5000000  -0.1666667   0.5000000), wk =   0.2222222
        k(    9) = (   0.3333333   0.0000000   0.3333333), wk =   0.1111111
        k(   10) = (   0.0000000   0.6666667   0.0000000), wk =   0.0555556
        k(   11) = (   0.8333333  -0.1666667   0.8333333), wk =   0.2222222
        k(   12) = (   0.6666667  -0.0000000   0.6666667), wk =   0.1111111
        k(   13) = (   0.0000000  -1.0000000   0.0000000), wk =   0.0277778
        k(   14) = (   0.6666667  -0.3333333   1.0000000), wk =   0.2222222
        k(   15) = (   0.5000000  -0.1666667   0.8333333), wk =   0.2222222
        k(   16) = (  -0.3333333  -1.0000000   0.0000000), wk =   0.1111111

     Dense  grid:    18907 G-vectors     FFT dimensions: (  40,  40,  40)

     Smooth grid:     6735 G-vectors     FFT dimensions: (  27,  27,  27)

     Estimated max dynamical RAM per process >      70.84 MB

     Initial potential from superposition of free atoms

     starting charge   13.99765, renormalised to   14.00000
     Starting wfcs are    9 randomized atomic wfcs +    2 random wfcs

     total cpu time spent up to now is        1.6 secs

     Self-consistent Calculation

     iteration #  1     ecut=    40.00 Ry     beta= 0.70
     Davidson diagonalization with overlap
     ethr =  1.00E-02,  avg # of iterations =  4.5

     Threshold (ethr) on eigenvalues was too large:
     Diagonalizing with lowered threshold

     Davidson diagonalization with overlap
     ethr =  1.57E-05,  avg # of iterations =  3.9

     total cpu time spent up to now is        2.8 secs

     total energy              =    -135.40822436 Ry
     Harris-Foulkes estimate   =    -135.40932003 Ry
     estimated scf accuracy    <       0.00230855 Ry

     iteration #  2     ecut=    40.00 Ry     beta= 0.70
     Davidson diagonalization with overlap
     ethr =  1.65E-05,  avg # of iterations =  2.0

     total cpu time spent up to now is        3.4 secs

     total energy              =    -135.40873729 Ry
     Harris-Foulkes estimate   =    -135.40884036 Ry
     estimated scf accuracy    <       0.00022449 Ry

     iteration #  3     ecut=    40.00 Ry     beta= 0.70
     Davidson diagonalization with overlap
     ethr =  1.60E-06,  avg # of iterations =  2.0

     total cpu time spent up to now is        4.0 secs

     total energy              =    -135.40878774 Ry
     Harris-Foulkes estimate   =    -135.40878378 Ry
     estimated scf accuracy    <       0.00001138 Ry

     iteration #  4     ecut=    40.00 Ry     beta= 0.70
     Davidson diagonalization with overlap
     ethr =  8.13E-08,  avg # of iterations =  1.8

     total cpu time spent up to now is        4.6 secs

     total energy              =    -135.40878876 Ry
     Harris-Foulkes estimate   =    -135.40878872 Ry
     estimated scf accuracy    <       0.00000006 Ry

     iteration #  5     ecut=    40.00 Ry     beta= 0.70
     Davidson diagonalization with overlap
     ethr =  4.60E-10,  avg # of iterations =  2.8

     total cpu time spent up to now is        5.3 secs

     total energy              =    -135.40878880 Ry
     Harris-Foulkes estimate   =    -135.40878881 Ry
     estimated scf accuracy    <       0.00000001 Ry

     iteration #  6     ecut=    40.00 Ry     beta= 0.70
     Davidson diagonalization with overlap
     ethr =  9.76E-11,  avg # of iterations =  2.0

     total cpu time spent up to now is        5.9 secs

     End of self-consistent calculation

          k = 0.0000 0.0000 0.0000 (   869 PWs)   bands (ev):

    -5.1989  -5.1989  -5.1989  -5.0419  -5.0419  -0.1728  19.6491  19.6491
    19.6491  21.9823  23.7665

          k =-0.1667 0.1667-0.1667 (   854 PWs)   bands (ev):

    -5.1986  -5.1648  -5.1648  -5.0285  -5.0285   0.3873  15.3604  19.0446
    19.0446  21.3683  24.9199

          k =-0.3333 0.3333-0.3333 (   842 PWs)   bands (ev):

    -5.2216  -5.1666  -5.1666  -4.9403  -4.9403   2.0322  10.3124  18.1195
    18.1195  21.1233  22.8265

          k = 0.5000-0.5000 0.5000 (   832 PWs)   bands (ev):

    -5.2339  -5.1846  -5.1846  -4.8754  -4.8754   3.7125   7.4538  17.7232
    17.7232  21.3926  21.7395

          k = 0.0000 0.3333 0.0000 (   853 PWs)   bands (ev):

    -5.2477  -5.1106  -5.1106  -5.0918  -5.0016   0.5730  16.6024  17.3958
    17.3958  20.4391  21.9330

          k =-0.1667 0.5000-0.1667 (   841 PWs)   bands (ev):

    -5.2546  -5.1416  -5.0823  -5.0294  -4.9245   1.8623  12.1433  16.2466
    16.3436  19.9459  22.4343

          k = 0.6667-0.3333 0.6667 (   834 PWs)   bands (ev):

    -5.2363  -5.1538  -5.1102  -4.9629  -4.8704   3.8099   8.4180  14.6952
    16.3758  19.6506  24.6663

          k = 0.5000-0.1667 0.5000 (   836 PWs)   bands (ev):

    -5.1981  -5.1642  -5.1137  -4.9539  -4.9300   3.1793   9.4398  14.0152
    17.5600  20.4454  23.9078

          k = 0.3333 0.0000 0.3333 (   845 PWs)   bands (ev):

    -5.1954  -5.1515  -5.1033  -5.0690  -4.9666   1.3146  13.3447  14.9788
    19.2855  22.2816  23.0828

          k = 0.0000 0.6667 0.0000 (   837 PWs)   bands (ev):

    -5.3357  -5.2159  -4.9346  -4.9346  -4.9288   2.7689  11.9542  14.9181
    14.9181  18.3397  19.1057

          k = 0.8333-0.1667 0.8333 (   842 PWs)   bands (ev):

    -5.3220  -5.2240  -4.9575  -4.9177  -4.8626   4.4498   9.6669  12.3059
    14.6591  18.3342  21.3900

          k = 0.6667-0.0000 0.6667 (   816 PWs)   bands (ev):

    -5.2556  -5.0728  -5.0193  -4.9960  -4.9159   4.7284   9.9815  10.2432
    15.6858  18.9702  26.1577

          k = 0.0000-1.0000 0.0000 (   846 PWs)   bands (ev):

    -5.3845  -5.2882  -4.8980  -4.8413  -4.8413   5.2283   8.4330  13.9965
    13.9965  17.3950  18.6700

          k = 0.6667-0.3333 1.0000 (   843 PWs)   bands (ev):

    -5.2325  -5.1790  -5.0668  -4.9404  -4.9227   3.3893  10.7979  12.6383
    15.0133  21.3631  22.3841

          k = 0.5000-0.1667 0.8333 (   830 PWs)   bands (ev):

    -5.2013  -5.1553  -5.0454  -5.0031  -4.8740   4.7525   9.1165  11.8882
    13.9505  21.5817  23.5982

          k =-0.3333-1.0000 0.0000 (   832 PWs)   bands (ev):

    -5.2599  -5.2144  -4.9879  -4.9500  -4.8361   5.3137   9.3511  11.7807
    12.4495  20.9713  21.8587

     the Fermi energy is    12.0469 ev

!    total energy              =    -135.40878880 Ry
     Harris-Foulkes estimate   =    -135.40878880 Ry
     estimated scf accuracy    <          7.7E-10 Ry

     The total energy is the sum of the following terms:

     one-electron contribution =     -31.45384944 Ry
     hartree contribution      =      26.11437095 Ry
     xc contribution           =     -32.62682294 Ry
     ewald contribution        =     -97.43857717 Ry
     smearing contrib. (-TS)   =      -0.00391021 Ry

     convergence has been achieved in   6 iterations

     Writing output data file Pb.save/

     init_run     :      0.80s CPU      0.83s WALL (       1 calls)
     electrons    :      4.07s CPU      4.31s WALL (       1 calls)

     Called by init_run:
     wfcinit      :      0.14s CPU      0.14s WALL (       1 calls)
     potinit      :      0.04s CPU      0.05s WALL (       1 calls)
     hinit0       :      0.57s CPU      0.57s WALL (       1 calls)

     Called by electrons:
     c_bands      :      2.84s CPU      2.86s WALL (       7 calls)
     sum_band     :      0.77s CPU      0.89s WALL (       7 calls)
     v_of_rho     :      0.23s CPU      0.24s WALL (       7 calls)
     newd         :      0.25s CPU      0.36s WALL (       7 calls)
     mix_rho      :      0.03s CPU      0.03s WALL (       7 calls)

     Called by c_bands:
     init_us_2    :      0.05s CPU      0.05s WALL (     240 calls)
     cegterg      :      2.72s CPU      2.74s WALL (     112 calls)

     Called by sum_band:
     sum_band:bec :      0.00s CPU      0.00s WALL (     112 calls)
     addusdens    :      0.30s CPU      0.41s WALL (       7 calls)

     Called by *egterg:
     h_psi        :      2.27s CPU      2.29s WALL (     432 calls)
     s_psi        :      0.09s CPU      0.09s WALL (     432 calls)
     g_psi        :      0.01s CPU      0.01s WALL (     304 calls)
     cdiaghg      :      0.09s CPU      0.09s WALL (     400 calls)

     Called by h_psi:
     h_psi:pot    :      2.27s CPU      2.29s WALL (     432 calls)
     h_psi:calbec :      0.09s CPU      0.09s WALL (     432 calls)
     vloc_psi     :      2.08s CPU      2.10s WALL (     432 calls)
     add_vuspsi   :      0.09s CPU      0.09s WALL (     432 calls)

     General routines
     calbec       :      0.13s CPU      0.13s WALL (     544 calls)
     fft          :      0.15s CPU      0.15s WALL (      90 calls)
     ffts         :      0.01s CPU      0.01s WALL (      14 calls)
     fftw         :      2.23s CPU      2.25s WALL (    8036 calls)
     interpolate  :      0.02s CPU      0.02s WALL (       7 calls)

     Parallel routines

     PWSCF        :      5.62s CPU      5.91s WALL


   This run was terminated on:  16:46:31  30Jun2021            

=------------------------------------------------------------------------------=
   JOB DONE.
=------------------------------------------------------------------------------=
