
     Program PWSCF v.6.4.1 starts on 30Jun2021 at 16:46:32 

     This program is part of the open-source Quantum ESPRESSO suite
     for quantum simulation of materials; please cite
         "P. Giannozzi et al., J. Phys.:Condens. Matter 21 395502 (2009);
         "P. Giannozzi et al., J. Phys.:Condens. Matter 29 465901 (2017);
          URL http://www.quantum-espresso.org", 
     in publications or presentations arising from this work. More details at
     http://www.quantum-espresso.org/quote

     Parallel version (MPI), running on     1 processors

     MPI processes distributed on     1 nodes
     Waiting for input...
     Reading input from standard input

     Current dimensions of program PWSCF are:
     Max number of different atomic species (ntypx) = 10
     Max number of k-points (npk) =  40000
     Max angular momentum in pseudopotentials (lmaxx) =  3
               file Pb.pbe-dn-rrkjus_psl.1.0.0.UPF: wavefunction(s)  6S 5D renormalized

     Subspace diagonalization in iterative solution of the eigenvalue problem:
     a serial algorithm will be used


     G-vector sticks info
     --------------------
     sticks:   dense  smooth     PW     G-vecs:    dense   smooth      PW
     Sum        1159     583    187                26469     9377    1639


     Title: 
     Lead                                                                       


     bravais-lattice index     =            2
     lattice parameter (alat)  =       9.2226  a.u.
     unit-cell volume          =     196.1075 (a.u.)^3
     number of atoms/cell      =            1
     number of atomic types    =            1
     number of electrons       =        14.00
     number of Kohn-Sham states=           11
     kinetic-energy cutoff     =      50.0000  Ry
     charge density cutoff     =     400.0000  Ry
     convergence threshold     =      1.0E-09
     mixing beta               =       0.7000
     number of iterations used =            8  plain     mixing
     Exchange-correlation      = PBE ( 1  4  3  4 0 0)

     celldm(1)=   9.222558  celldm(2)=   0.000000  celldm(3)=   0.000000
     celldm(4)=   0.000000  celldm(5)=   0.000000  celldm(6)=   0.000000

     crystal axes: (cart. coord. in units of alat)
               a(1) = (  -0.500000   0.000000   0.500000 )  
               a(2) = (   0.000000   0.500000   0.500000 )  
               a(3) = (  -0.500000   0.500000   0.000000 )  

     reciprocal axes: (cart. coord. in units 2 pi/alat)
               b(1) = ( -1.000000 -1.000000  1.000000 )  
               b(2) = (  1.000000  1.000000  1.000000 )  
               b(3) = ( -1.000000  1.000000 -1.000000 )  


     PseudoPot. # 1 for Pb read from file:
     /home/elena/qe-6.7/pseudo/Pb.pbe-dn-rrkjus_psl.1.0.0.UPF
     MD5 check sum: 1cf8f5e18580e6a90a35f98a53d336de
     Pseudo is Ultrasoft + core correction, Zval = 14.0
     Generated using "atomic" code by A. Dal Corso v.6.3
     Using radial grid of 1281 points,  6 beta functions with: 
                l(1) =   0
                l(2) =   0
                l(3) =   1
                l(4) =   1
                l(5) =   2
                l(6) =   2
     Q(r) pseudized with 0 coefficients 


     atomic species   valence    mass     pseudopotential
        Pb            14.00   207.20000     Pb( 1.00)

     48 Sym. Ops., with inversion, found



   Cartesian axes

     site n.     atom                  positions (alat units)
         1           Pb  tau(   1) = (   0.0000000   0.0000000   0.0000000  )

     number of k points=    16  Methfessel-Paxton smearing, width (Ry)=  0.0500
                       cart. coord. in units 2pi/alat
        k(    1) = (   0.0000000   0.0000000   0.0000000), wk =   0.0092593
        k(    2) = (  -0.1666667   0.1666667  -0.1666667), wk =   0.0740741
        k(    3) = (  -0.3333333   0.3333333  -0.3333333), wk =   0.0740741
        k(    4) = (   0.5000000  -0.5000000   0.5000000), wk =   0.0370370
        k(    5) = (   0.0000000   0.3333333   0.0000000), wk =   0.0555556
        k(    6) = (  -0.1666667   0.5000000  -0.1666667), wk =   0.2222222
        k(    7) = (   0.6666667  -0.3333333   0.6666667), wk =   0.2222222
        k(    8) = (   0.5000000  -0.1666667   0.5000000), wk =   0.2222222
        k(    9) = (   0.3333333   0.0000000   0.3333333), wk =   0.1111111
        k(   10) = (   0.0000000   0.6666667   0.0000000), wk =   0.0555556
        k(   11) = (   0.8333333  -0.1666667   0.8333333), wk =   0.2222222
        k(   12) = (   0.6666667  -0.0000000   0.6666667), wk =   0.1111111
        k(   13) = (   0.0000000  -1.0000000   0.0000000), wk =   0.0277778
        k(   14) = (   0.6666667  -0.3333333   1.0000000), wk =   0.2222222
        k(   15) = (   0.5000000  -0.1666667   0.8333333), wk =   0.2222222
        k(   16) = (  -0.3333333  -1.0000000   0.0000000), wk =   0.1111111

     Dense  grid:    26469 G-vectors     FFT dimensions: (  45,  45,  45)

     Smooth grid:     9377 G-vectors     FFT dimensions: (  30,  30,  30)

     Estimated max dynamical RAM per process >      98.68 MB

     Initial potential from superposition of free atoms

     starting charge   13.99765, renormalised to   14.00000
     Starting wfcs are    9 randomized atomic wfcs +    2 random wfcs

     total cpu time spent up to now is        1.8 secs

     Self-consistent Calculation

     iteration #  1     ecut=    50.00 Ry     beta= 0.70
     Davidson diagonalization with overlap
     ethr =  1.00E-02,  avg # of iterations =  3.9

     Threshold (ethr) on eigenvalues was too large:
     Diagonalizing with lowered threshold

     Davidson diagonalization with overlap
     ethr =  1.62E-05,  avg # of iterations =  4.1

     total cpu time spent up to now is        3.7 secs

     total energy              =    -135.42044362 Ry
     Harris-Foulkes estimate   =    -135.42167586 Ry
     estimated scf accuracy    <       0.00230424 Ry

     iteration #  2     ecut=    50.00 Ry     beta= 0.70
     Davidson diagonalization with overlap
     ethr =  1.65E-05,  avg # of iterations =  2.0

     total cpu time spent up to now is        4.8 secs

     total energy              =    -135.42089515 Ry
     Harris-Foulkes estimate   =    -135.42099849 Ry
     estimated scf accuracy    <       0.00020317 Ry

     iteration #  3     ecut=    50.00 Ry     beta= 0.70
     Davidson diagonalization with overlap
     ethr =  1.45E-06,  avg # of iterations =  2.4

     total cpu time spent up to now is        5.7 secs

     total energy              =    -135.42093834 Ry
     Harris-Foulkes estimate   =    -135.42093809 Ry
     estimated scf accuracy    <       0.00001169 Ry

     iteration #  4     ecut=    50.00 Ry     beta= 0.70
     Davidson diagonalization with overlap
     ethr =  8.35E-08,  avg # of iterations =  1.7

     total cpu time spent up to now is        6.6 secs

     total energy              =    -135.42093959 Ry
     Harris-Foulkes estimate   =    -135.42093953 Ry
     estimated scf accuracy    <       0.00000008 Ry

     iteration #  5     ecut=    50.00 Ry     beta= 0.70
     Davidson diagonalization with overlap
     ethr =  5.99E-10,  avg # of iterations =  2.4

     total cpu time spent up to now is        7.6 secs

     total energy              =    -135.42093963 Ry
     Harris-Foulkes estimate   =    -135.42093964 Ry
     estimated scf accuracy    <       0.00000002 Ry

     iteration #  6     ecut=    50.00 Ry     beta= 0.70
     Davidson diagonalization with overlap
     ethr =  1.09E-10,  avg # of iterations =  2.0

     total cpu time spent up to now is        8.5 secs

     End of self-consistent calculation

          k = 0.0000 0.0000 0.0000 (  1211 PWs)   bands (ev):

    -5.2072  -5.2072  -5.2072  -5.0490  -5.0490  -0.1715  19.6526  19.6526
    19.6526  21.9826  23.7666

          k =-0.1667 0.1667-0.1667 (  1173 PWs)   bands (ev):

    -5.2109  -5.1737  -5.1737  -5.0426  -5.0426   0.3888  15.3628  19.0479
    19.0479  21.3688  24.9202

          k =-0.3333 0.3333-0.3333 (  1167 PWs)   bands (ev):

    -5.2317  -5.1782  -5.1782  -4.9561  -4.9561   2.0337  10.3146  18.1227
    18.1227  21.1238  22.8271

          k = 0.5000-0.5000 0.5000 (  1170 PWs)   bands (ev):

    -5.2473  -5.1960  -5.1960  -4.8957  -4.8957   3.7139   7.4559  17.7264
    17.7264  21.3926  21.7403

          k = 0.0000 0.3333 0.0000 (  1171 PWs)   bands (ev):

    -5.2545  -5.1238  -5.1238  -5.1016  -5.0142   0.5745  16.6052  17.3986
    17.3986  20.4397  21.9335

          k =-0.1667 0.5000-0.1667 (  1176 PWs)   bands (ev):

    -5.2657  -5.1553  -5.0948  -5.0411  -4.9412   1.8639  12.1456  16.2491
    16.3464  19.9462  22.4354

          k = 0.6667-0.3333 0.6667 (  1177 PWs)   bands (ev):

    -5.2487  -5.1675  -5.1213  -4.9788  -4.8913   3.8115   8.4200  14.6976
    16.3786  19.6509  24.6675

          k = 0.5000-0.1667 0.5000 (  1166 PWs)   bands (ev):

    -5.2114  -5.1774  -5.1247  -4.9692  -4.9493   3.1809   9.4418  14.0175
    17.5630  20.4458  23.9087

          k = 0.3333 0.0000 0.3333 (  1175 PWs)   bands (ev):

    -5.2075  -5.1652  -5.1138  -5.0818  -4.9794   1.3161  13.3471  14.9810
    19.2891  22.2820  23.0839

          k = 0.0000 0.6667 0.0000 (  1174 PWs)   bands (ev):

    -5.3486  -5.2282  -4.9487  -4.9487  -4.9442   2.7706  11.9568  14.9208
    14.9208  18.3400  19.1060

          k = 0.8333-0.1667 0.8333 (  1169 PWs)   bands (ev):

    -5.3332  -5.2342  -4.9705  -4.9331  -4.8787   4.4516   9.6692  12.3080
    14.6618  18.3346  21.3911

          k = 0.6667-0.0000 0.6667 (  1152 PWs)   bands (ev):

    -5.2733  -5.0949  -5.0398  -5.0137  -4.9382   4.7302   9.9832  10.2452
    15.6885  18.9704  26.1584

          k = 0.0000-1.0000 0.0000 (  1162 PWs)   bands (ev):

    -5.3952  -5.2990  -4.9089  -4.8562  -4.8562   5.2301   8.4353  13.9992
    13.9992  17.3954  18.6706

          k = 0.6667-0.3333 1.0000 (  1173 PWs)   bands (ev):

    -5.2430  -5.1906  -5.0784  -4.9535  -4.9392   3.3909  10.8002  12.6405
    15.0154  21.3644  22.3851

          k = 0.5000-0.1667 0.8333 (  1176 PWs)   bands (ev):

    -5.2152  -5.1689  -5.0640  -5.0180  -4.8941   4.7543   9.1185  11.8905
    13.9524  21.5829  23.5989

          k =-0.3333-1.0000 0.0000 (  1166 PWs)   bands (ev):

    -5.2719  -5.2302  -5.0032  -4.9684  -4.8561   5.3155   9.3533  11.7829
    12.4511  20.9724  21.8595

     the Fermi energy is    12.0491 ev

!    total energy              =    -135.42093963 Ry
     Harris-Foulkes estimate   =    -135.42093963 Ry
     estimated scf accuracy    <          9.2E-10 Ry

     The total energy is the sum of the following terms:

     one-electron contribution =     -31.46895798 Ry
     hartree contribution      =      26.11591701 Ry
     xc contribution           =     -32.62540952 Ry
     ewald contribution        =     -97.43857717 Ry
     smearing contrib. (-TS)   =      -0.00391198 Ry

     convergence has been achieved in   6 iterations

     Writing output data file Pb.save/

     init_run     :      0.97s CPU      1.01s WALL (       1 calls)
     electrons    :      6.35s CPU      6.72s WALL (       1 calls)

     Called by init_run:
     wfcinit      :      0.22s CPU      0.22s WALL (       1 calls)
     potinit      :      0.06s CPU      0.06s WALL (       1 calls)
     hinit0       :      0.63s CPU      0.64s WALL (       1 calls)

     Called by electrons:
     c_bands      :      4.58s CPU      4.62s WALL (       7 calls)
     sum_band     :      1.16s CPU      1.34s WALL (       7 calls)
     v_of_rho     :      0.30s CPU      0.31s WALL (       7 calls)
     newd         :      0.34s CPU      0.51s WALL (       7 calls)
     mix_rho      :      0.03s CPU      0.03s WALL (       7 calls)

     Called by c_bands:
     init_us_2    :      0.07s CPU      0.07s WALL (     240 calls)
     cegterg      :      4.41s CPU      4.45s WALL (     112 calls)

     Called by sum_band:
     sum_band:bec :      0.00s CPU      0.00s WALL (     112 calls)
     addusdens    :      0.39s CPU      0.57s WALL (       7 calls)

     Called by *egterg:
     h_psi        :      3.83s CPU      3.86s WALL (     424 calls)
     s_psi        :      0.13s CPU      0.13s WALL (     424 calls)
     g_psi        :      0.02s CPU      0.02s WALL (     296 calls)
     cdiaghg      :      0.09s CPU      0.09s WALL (     392 calls)

     Called by h_psi:
     h_psi:pot    :      3.82s CPU      3.85s WALL (     424 calls)
     h_psi:calbec :      0.14s CPU      0.14s WALL (     424 calls)
     vloc_psi     :      3.55s CPU      3.58s WALL (     424 calls)
     add_vuspsi   :      0.13s CPU      0.13s WALL (     424 calls)

     General routines
     calbec       :      0.18s CPU      0.18s WALL (     536 calls)
     fft          :      0.16s CPU      0.16s WALL (      90 calls)
     ffts         :      0.02s CPU      0.02s WALL (      14 calls)
     fftw         :      3.87s CPU      3.90s WALL (    7952 calls)
     interpolate  :      0.02s CPU      0.02s WALL (       7 calls)

     Parallel routines

     PWSCF        :      8.09s CPU      8.52s WALL


   This run was terminated on:  16:46:40  30Jun2021            

=------------------------------------------------------------------------------=
   JOB DONE.
=------------------------------------------------------------------------------=
