
     Program PWSCF v.6.4.1 starts on 30Jun2021 at 16:46:41 

     This program is part of the open-source Quantum ESPRESSO suite
     for quantum simulation of materials; please cite
         "P. Giannozzi et al., J. Phys.:Condens. Matter 21 395502 (2009);
         "P. Giannozzi et al., J. Phys.:Condens. Matter 29 465901 (2017);
          URL http://www.quantum-espresso.org", 
     in publications or presentations arising from this work. More details at
     http://www.quantum-espresso.org/quote

     Parallel version (MPI), running on     1 processors

     MPI processes distributed on     1 nodes
     Waiting for input...
     Reading input from standard input

     Current dimensions of program PWSCF are:
     Max number of different atomic species (ntypx) = 10
     Max number of k-points (npk) =  40000
     Max angular momentum in pseudopotentials (lmaxx) =  3
               file Pb.pbe-dn-rrkjus_psl.1.0.0.UPF: wavefunction(s)  6S 5D renormalized

     Subspace diagonalization in iterative solution of the eigenvalue problem:
     a serial algorithm will be used


     G-vector sticks info
     --------------------
     sticks:   dense  smooth     PW     G-vecs:    dense   smooth      PW
     Sum        1405     703    211                34717    12339    2085


     Title: 
     Lead                                                                       


     bravais-lattice index     =            2
     lattice parameter (alat)  =       9.2226  a.u.
     unit-cell volume          =     196.1075 (a.u.)^3
     number of atoms/cell      =            1
     number of atomic types    =            1
     number of electrons       =        14.00
     number of Kohn-Sham states=           11
     kinetic-energy cutoff     =      60.0000  Ry
     charge density cutoff     =     480.0000  Ry
     convergence threshold     =      1.0E-09
     mixing beta               =       0.7000
     number of iterations used =            8  plain     mixing
     Exchange-correlation      = PBE ( 1  4  3  4 0 0)

     celldm(1)=   9.222558  celldm(2)=   0.000000  celldm(3)=   0.000000
     celldm(4)=   0.000000  celldm(5)=   0.000000  celldm(6)=   0.000000

     crystal axes: (cart. coord. in units of alat)
               a(1) = (  -0.500000   0.000000   0.500000 )  
               a(2) = (   0.000000   0.500000   0.500000 )  
               a(3) = (  -0.500000   0.500000   0.000000 )  

     reciprocal axes: (cart. coord. in units 2 pi/alat)
               b(1) = ( -1.000000 -1.000000  1.000000 )  
               b(2) = (  1.000000  1.000000  1.000000 )  
               b(3) = ( -1.000000  1.000000 -1.000000 )  


     PseudoPot. # 1 for Pb read from file:
     /home/elena/qe-6.7/pseudo/Pb.pbe-dn-rrkjus_psl.1.0.0.UPF
     MD5 check sum: 1cf8f5e18580e6a90a35f98a53d336de
     Pseudo is Ultrasoft + core correction, Zval = 14.0
     Generated using "atomic" code by A. Dal Corso v.6.3
     Using radial grid of 1281 points,  6 beta functions with: 
                l(1) =   0
                l(2) =   0
                l(3) =   1
                l(4) =   1
                l(5) =   2
                l(6) =   2
     Q(r) pseudized with 0 coefficients 


     atomic species   valence    mass     pseudopotential
        Pb            14.00   207.20000     Pb( 1.00)

     48 Sym. Ops., with inversion, found



   Cartesian axes

     site n.     atom                  positions (alat units)
         1           Pb  tau(   1) = (   0.0000000   0.0000000   0.0000000  )

     number of k points=    16  Methfessel-Paxton smearing, width (Ry)=  0.0500
                       cart. coord. in units 2pi/alat
        k(    1) = (   0.0000000   0.0000000   0.0000000), wk =   0.0092593
        k(    2) = (  -0.1666667   0.1666667  -0.1666667), wk =   0.0740741
        k(    3) = (  -0.3333333   0.3333333  -0.3333333), wk =   0.0740741
        k(    4) = (   0.5000000  -0.5000000   0.5000000), wk =   0.0370370
        k(    5) = (   0.0000000   0.3333333   0.0000000), wk =   0.0555556
        k(    6) = (  -0.1666667   0.5000000  -0.1666667), wk =   0.2222222
        k(    7) = (   0.6666667  -0.3333333   0.6666667), wk =   0.2222222
        k(    8) = (   0.5000000  -0.1666667   0.5000000), wk =   0.2222222
        k(    9) = (   0.3333333   0.0000000   0.3333333), wk =   0.1111111
        k(   10) = (   0.0000000   0.6666667   0.0000000), wk =   0.0555556
        k(   11) = (   0.8333333  -0.1666667   0.8333333), wk =   0.2222222
        k(   12) = (   0.6666667  -0.0000000   0.6666667), wk =   0.1111111
        k(   13) = (   0.0000000  -1.0000000   0.0000000), wk =   0.0277778
        k(   14) = (   0.6666667  -0.3333333   1.0000000), wk =   0.2222222
        k(   15) = (   0.5000000  -0.1666667   0.8333333), wk =   0.2222222
        k(   16) = (  -0.3333333  -1.0000000   0.0000000), wk =   0.1111111

     Dense  grid:    34717 G-vectors     FFT dimensions: (  45,  45,  45)

     Smooth grid:    12339 G-vectors     FFT dimensions: (  36,  36,  36)

     Estimated max dynamical RAM per process >     126.98 MB

     Initial potential from superposition of free atoms

     starting charge   13.99765, renormalised to   14.00000
     Starting wfcs are    9 randomized atomic wfcs +    2 random wfcs

     total cpu time spent up to now is        1.9 secs

     Self-consistent Calculation

     iteration #  1     ecut=    60.00 Ry     beta= 0.70
     Davidson diagonalization with overlap
     ethr =  1.00E-02,  avg # of iterations =  4.0

     Threshold (ethr) on eigenvalues was too large:
     Diagonalizing with lowered threshold

     Davidson diagonalization with overlap
     ethr =  1.55E-05,  avg # of iterations =  3.9

     total cpu time spent up to now is        4.0 secs

     total energy              =    -135.42468753 Ry
     Harris-Foulkes estimate   =    -135.42592614 Ry
     estimated scf accuracy    <       0.00220566 Ry

     iteration #  2     ecut=    60.00 Ry     beta= 0.70
     Davidson diagonalization with overlap
     ethr =  1.58E-05,  avg # of iterations =  2.0

     total cpu time spent up to now is        5.0 secs

     total energy              =    -135.42513012 Ry
     Harris-Foulkes estimate   =    -135.42523698 Ry
     estimated scf accuracy    <       0.00020013 Ry

     iteration #  3     ecut=    60.00 Ry     beta= 0.70
     Davidson diagonalization with overlap
     ethr =  1.43E-06,  avg # of iterations =  2.4

     total cpu time spent up to now is        6.2 secs

     total energy              =    -135.42517209 Ry
     Harris-Foulkes estimate   =    -135.42517229 Ry
     estimated scf accuracy    <       0.00001060 Ry

     iteration #  4     ecut=    60.00 Ry     beta= 0.70
     Davidson diagonalization with overlap
     ethr =  7.57E-08,  avg # of iterations =  1.7

     total cpu time spent up to now is        7.3 secs

     total energy              =    -135.42517326 Ry
     Harris-Foulkes estimate   =    -135.42517320 Ry
     estimated scf accuracy    <       0.00000009 Ry

     iteration #  5     ecut=    60.00 Ry     beta= 0.70
     Davidson diagonalization with overlap
     ethr =  6.29E-10,  avg # of iterations =  2.4

     total cpu time spent up to now is        8.5 secs

     total energy              =    -135.42517330 Ry
     Harris-Foulkes estimate   =    -135.42517330 Ry
     estimated scf accuracy    <       0.00000001 Ry

     iteration #  6     ecut=    60.00 Ry     beta= 0.70
     Davidson diagonalization with overlap
     ethr =  8.97E-11,  avg # of iterations =  2.0

     total cpu time spent up to now is        9.6 secs

     End of self-consistent calculation

          k = 0.0000 0.0000 0.0000 (  1471 PWs)   bands (ev):

    -5.2063  -5.2063  -5.2063  -5.0484  -5.0484  -0.1725  19.6515  19.6515
    19.6515  21.9825  23.7660

          k =-0.1667 0.1667-0.1667 (  1525 PWs)   bands (ev):

    -5.2109  -5.1738  -5.1738  -5.0437  -5.0437   0.3876  15.3617  19.0468
    19.0468  21.3682  24.9199

          k =-0.3333 0.3333-0.3333 (  1528 PWs)   bands (ev):

    -5.2326  -5.1782  -5.1782  -4.9573  -4.9573   2.0325  10.3136  18.1216
    18.1216  21.1231  22.8265

          k = 0.5000-0.5000 0.5000 (  1538 PWs)   bands (ev):

    -5.2478  -5.1964  -5.1964  -4.8973  -4.8973   3.7126   7.4549  17.7253
    17.7253  21.3924  21.7391

          k = 0.0000 0.3333 0.0000 (  1519 PWs)   bands (ev):

    -5.2541  -5.1245  -5.1245  -5.1020  -5.0147   0.5734  16.6041  17.3974
    17.3974  20.4389  21.9327

          k =-0.1667 0.5000-0.1667 (  1539 PWs)   bands (ev):

    -5.2657  -5.1561  -5.0953  -5.0422  -4.9427   1.8627  12.1445  16.2479
    16.3453  19.9454  22.4345

          k = 0.6667-0.3333 0.6667 (  1547 PWs)   bands (ev):

    -5.2492  -5.1684  -5.1220  -4.9803  -4.8929   3.8102   8.4191  14.6964
    16.3775  19.6501  24.6665

          k = 0.5000-0.1667 0.5000 (  1543 PWs)   bands (ev):

    -5.2120  -5.1782  -5.1255  -4.9704  -4.9507   3.1796   9.4408  14.0164
    17.5619  20.4450  23.9079

          k = 0.3333 0.0000 0.3333 (  1530 PWs)   bands (ev):

    -5.2082  -5.1655  -5.1143  -5.0824  -4.9803   1.3150  13.3460  14.9799
    19.2879  22.2814  23.0833

          k = 0.0000 0.6667 0.0000 (  1544 PWs)   bands (ev):

    -5.3485  -5.2286  -4.9503  -4.9503  -4.9455   2.7693  11.9556  14.9197
    14.9197  18.3391  19.1050

          k = 0.8333-0.1667 0.8333 (  1541 PWs)   bands (ev):

    -5.3334  -5.2349  -4.9715  -4.9346  -4.8803   4.4502   9.6681  12.3070
    14.6608  18.3336  21.3900

          k = 0.6667-0.0000 0.6667 (  1550 PWs)   bands (ev):

    -5.2743  -5.0963  -5.0412  -5.0147  -4.9395   4.7287   9.9822  10.2442
    15.6874  18.9693  26.1575

          k = 0.0000-1.0000 0.0000 (  1572 PWs)   bands (ev):

    -5.3956  -5.3003  -4.9108  -4.8585  -4.8585   5.2286   8.4344  13.9982
    13.9982  17.3944  18.6693

          k = 0.6667-0.3333 1.0000 (  1536 PWs)   bands (ev):

    -5.2433  -5.1912  -5.0791  -4.9546  -4.9406   3.3897  10.7991  12.6394
    15.0143  21.3636  22.3841

          k = 0.5000-0.1667 0.8333 (  1544 PWs)   bands (ev):

    -5.2157  -5.1698  -5.0653  -5.0191  -4.8957   4.7529   9.1175  11.8894
    13.9514  21.5820  23.5977

          k =-0.3333-1.0000 0.0000 (  1544 PWs)   bands (ev):

    -5.2722  -5.2312  -5.0044  -4.9696  -4.8579   5.3141   9.3523  11.7819
    12.4501  20.9714  21.8584

     the Fermi energy is    12.0480 ev

!    total energy              =    -135.42517330 Ry
     Harris-Foulkes estimate   =    -135.42517330 Ry
     estimated scf accuracy    <          8.4E-10 Ry

     The total energy is the sum of the following terms:

     one-electron contribution =     -31.47514985 Ry
     hartree contribution      =      26.11941020 Ry
     xc contribution           =     -32.62694475 Ry
     ewald contribution        =     -97.43857717 Ry
     smearing contrib. (-TS)   =      -0.00391172 Ry

     convergence has been achieved in   6 iterations

     Writing output data file Pb.save/

     init_run     :      1.08s CPU      1.11s WALL (       1 calls)
     electrons    :      7.29s CPU      7.71s WALL (       1 calls)

     Called by init_run:
     wfcinit      :      0.24s CPU      0.24s WALL (       1 calls)
     potinit      :      0.06s CPU      0.06s WALL (       1 calls)
     hinit0       :      0.69s CPU      0.69s WALL (       1 calls)

     Called by electrons:
     c_bands      :      5.08s CPU      5.08s WALL (       7 calls)
     sum_band     :      1.34s CPU      1.56s WALL (       7 calls)
     v_of_rho     :      0.30s CPU      0.32s WALL (       7 calls)
     newd         :      0.63s CPU      0.84s WALL (       7 calls)
     mix_rho      :      0.03s CPU      0.03s WALL (       7 calls)

     Called by c_bands:
     init_us_2    :      0.10s CPU      0.10s WALL (     240 calls)
     cegterg      :      4.84s CPU      4.85s WALL (     112 calls)

     Called by sum_band:
     sum_band:bec :      0.00s CPU      0.00s WALL (     112 calls)
     addusdens    :      0.51s CPU      0.73s WALL (       7 calls)

     Called by *egterg:
     h_psi        :      4.05s CPU      4.05s WALL (     422 calls)
     s_psi        :      0.17s CPU      0.17s WALL (     422 calls)
     g_psi        :      0.02s CPU      0.02s WALL (     294 calls)
     cdiaghg      :      0.09s CPU      0.09s WALL (     390 calls)

     Called by h_psi:
     h_psi:pot    :      4.03s CPU      4.04s WALL (     422 calls)
     h_psi:calbec :      0.18s CPU      0.18s WALL (     422 calls)
     vloc_psi     :      3.68s CPU      3.69s WALL (     422 calls)
     add_vuspsi   :      0.17s CPU      0.17s WALL (     422 calls)

     General routines
     calbec       :      0.24s CPU      0.24s WALL (     534 calls)
     fft          :      0.16s CPU      0.16s WALL (      90 calls)
     ffts         :      0.02s CPU      0.02s WALL (      14 calls)
     fftw         :      3.78s CPU      3.78s WALL (    7970 calls)
     interpolate  :      0.02s CPU      0.02s WALL (       7 calls)

     Parallel routines

     PWSCF        :      9.16s CPU      9.62s WALL


   This run was terminated on:  16:46:50  30Jun2021            

=------------------------------------------------------------------------------=
   JOB DONE.
=------------------------------------------------------------------------------=
