
     Program PWSCF v.6.4.1 starts on 30Jun2021 at 16:47: 2 

     This program is part of the open-source Quantum ESPRESSO suite
     for quantum simulation of materials; please cite
         "P. Giannozzi et al., J. Phys.:Condens. Matter 21 395502 (2009);
         "P. Giannozzi et al., J. Phys.:Condens. Matter 29 465901 (2017);
          URL http://www.quantum-espresso.org", 
     in publications or presentations arising from this work. More details at
     http://www.quantum-espresso.org/quote

     Parallel version (MPI), running on     1 processors

     MPI processes distributed on     1 nodes
     Waiting for input...
     Reading input from standard input

     Current dimensions of program PWSCF are:
     Max number of different atomic species (ntypx) = 10
     Max number of k-points (npk) =  40000
     Max angular momentum in pseudopotentials (lmaxx) =  3
               file Pb.pbe-dn-rrkjus_psl.1.0.0.UPF: wavefunction(s)  6S 5D renormalized

     Subspace diagonalization in iterative solution of the eigenvalue problem:
     a serial algorithm will be used


     G-vector sticks info
     --------------------
     sticks:   dense  smooth     PW     G-vecs:    dense   smooth      PW
     Sum        1891     931    283                53497    18907    3119


     Title: 
     Lead                                                                       


     bravais-lattice index     =            2
     lattice parameter (alat)  =       9.2226  a.u.
     unit-cell volume          =     196.1075 (a.u.)^3
     number of atoms/cell      =            1
     number of atomic types    =            1
     number of electrons       =        14.00
     number of Kohn-Sham states=           11
     kinetic-energy cutoff     =      80.0000  Ry
     charge density cutoff     =     640.0000  Ry
     convergence threshold     =      1.0E-09
     mixing beta               =       0.7000
     number of iterations used =            8  plain     mixing
     Exchange-correlation      = PBE ( 1  4  3  4 0 0)

     celldm(1)=   9.222558  celldm(2)=   0.000000  celldm(3)=   0.000000
     celldm(4)=   0.000000  celldm(5)=   0.000000  celldm(6)=   0.000000

     crystal axes: (cart. coord. in units of alat)
               a(1) = (  -0.500000   0.000000   0.500000 )  
               a(2) = (   0.000000   0.500000   0.500000 )  
               a(3) = (  -0.500000   0.500000   0.000000 )  

     reciprocal axes: (cart. coord. in units 2 pi/alat)
               b(1) = ( -1.000000 -1.000000  1.000000 )  
               b(2) = (  1.000000  1.000000  1.000000 )  
               b(3) = ( -1.000000  1.000000 -1.000000 )  


     PseudoPot. # 1 for Pb read from file:
     /home/elena/qe-6.7/pseudo/Pb.pbe-dn-rrkjus_psl.1.0.0.UPF
     MD5 check sum: 1cf8f5e18580e6a90a35f98a53d336de
     Pseudo is Ultrasoft + core correction, Zval = 14.0
     Generated using "atomic" code by A. Dal Corso v.6.3
     Using radial grid of 1281 points,  6 beta functions with: 
                l(1) =   0
                l(2) =   0
                l(3) =   1
                l(4) =   1
                l(5) =   2
                l(6) =   2
     Q(r) pseudized with 0 coefficients 


     atomic species   valence    mass     pseudopotential
        Pb            14.00   207.20000     Pb( 1.00)

     48 Sym. Ops., with inversion, found



   Cartesian axes

     site n.     atom                  positions (alat units)
         1           Pb  tau(   1) = (   0.0000000   0.0000000   0.0000000  )

     number of k points=    16  Methfessel-Paxton smearing, width (Ry)=  0.0500
                       cart. coord. in units 2pi/alat
        k(    1) = (   0.0000000   0.0000000   0.0000000), wk =   0.0092593
        k(    2) = (  -0.1666667   0.1666667  -0.1666667), wk =   0.0740741
        k(    3) = (  -0.3333333   0.3333333  -0.3333333), wk =   0.0740741
        k(    4) = (   0.5000000  -0.5000000   0.5000000), wk =   0.0370370
        k(    5) = (   0.0000000   0.3333333   0.0000000), wk =   0.0555556
        k(    6) = (  -0.1666667   0.5000000  -0.1666667), wk =   0.2222222
        k(    7) = (   0.6666667  -0.3333333   0.6666667), wk =   0.2222222
        k(    8) = (   0.5000000  -0.1666667   0.5000000), wk =   0.2222222
        k(    9) = (   0.3333333   0.0000000   0.3333333), wk =   0.1111111
        k(   10) = (   0.0000000   0.6666667   0.0000000), wk =   0.0555556
        k(   11) = (   0.8333333  -0.1666667   0.8333333), wk =   0.2222222
        k(   12) = (   0.6666667  -0.0000000   0.6666667), wk =   0.1111111
        k(   13) = (   0.0000000  -1.0000000   0.0000000), wk =   0.0277778
        k(   14) = (   0.6666667  -0.3333333   1.0000000), wk =   0.2222222
        k(   15) = (   0.5000000  -0.1666667   0.8333333), wk =   0.2222222
        k(   16) = (  -0.3333333  -1.0000000   0.0000000), wk =   0.1111111

     Dense  grid:    53497 G-vectors     FFT dimensions: (  54,  54,  54)

     Smooth grid:    18907 G-vectors     FFT dimensions: (  40,  40,  40)

     Estimated max dynamical RAM per process >     195.83 MB

     Initial potential from superposition of free atoms

     starting charge   13.99765, renormalised to   14.00000
     Starting wfcs are    9 randomized atomic wfcs +    2 random wfcs

     total cpu time spent up to now is        2.3 secs

     Self-consistent Calculation

     iteration #  1     ecut=    80.00 Ry     beta= 0.70
     Davidson diagonalization with overlap
     ethr =  1.00E-02,  avg # of iterations =  4.2

     Threshold (ethr) on eigenvalues was too large:
     Diagonalizing with lowered threshold

     Davidson diagonalization with overlap
     ethr =  1.53E-05,  avg # of iterations =  3.9

     total cpu time spent up to now is        5.8 secs

     total energy              =    -135.42884464 Ry
     Harris-Foulkes estimate   =    -135.43010896 Ry
     estimated scf accuracy    <       0.00214965 Ry

     iteration #  2     ecut=    80.00 Ry     beta= 0.70
     Davidson diagonalization with overlap
     ethr =  1.54E-05,  avg # of iterations =  2.0

     total cpu time spent up to now is        7.6 secs

     total energy              =    -135.42927315 Ry
     Harris-Foulkes estimate   =    -135.42937941 Ry
     estimated scf accuracy    <       0.00019151 Ry

     iteration #  3     ecut=    80.00 Ry     beta= 0.70
     Davidson diagonalization with overlap
     ethr =  1.37E-06,  avg # of iterations =  2.4

     total cpu time spent up to now is        9.3 secs

     total energy              =    -135.42931238 Ry
     Harris-Foulkes estimate   =    -135.42931340 Ry
     estimated scf accuracy    <       0.00000981 Ry

     iteration #  4     ecut=    80.00 Ry     beta= 0.70
     Davidson diagonalization with overlap
     ethr =  7.01E-08,  avg # of iterations =  1.8

     total cpu time spent up to now is       10.9 secs

     total energy              =    -135.42931350 Ry
     Harris-Foulkes estimate   =    -135.42931344 Ry
     estimated scf accuracy    <       0.00000008 Ry

     iteration #  5     ecut=    80.00 Ry     beta= 0.70
     Davidson diagonalization with overlap
     ethr =  6.05E-10,  avg # of iterations =  2.3

     total cpu time spent up to now is       12.7 secs

     total energy              =    -135.42931352 Ry
     Harris-Foulkes estimate   =    -135.42931353 Ry
     estimated scf accuracy    <          7.0E-09 Ry

     iteration #  6     ecut=    80.00 Ry     beta= 0.70
     Davidson diagonalization with overlap
     ethr =  4.99E-11,  avg # of iterations =  2.0

     total cpu time spent up to now is       14.4 secs

     End of self-consistent calculation

          k = 0.0000 0.0000 0.0000 (  2421 PWs)   bands (ev):

    -5.2111  -5.2111  -5.2111  -5.0531  -5.0531  -0.1738  19.6510  19.6510
    19.6510  21.9825  23.7643

          k =-0.1667 0.1667-0.1667 (  2370 PWs)   bands (ev):

    -5.2151  -5.1779  -5.1779  -5.0470  -5.0470   0.3864  15.3609  19.0462
    19.0462  21.3678  24.9198

          k =-0.3333 0.3333-0.3333 (  2382 PWs)   bands (ev):

    -5.2359  -5.1824  -5.1824  -4.9606  -4.9606   2.0311  10.3128  18.1211
    18.1211  21.1225  22.8259

          k = 0.5000-0.5000 0.5000 (  2362 PWs)   bands (ev):

    -5.2516  -5.2002  -5.2002  -4.9003  -4.9003   3.7107   7.4546  17.7248
    17.7248  21.3923  21.7380

          k = 0.0000 0.3333 0.0000 (  2373 PWs)   bands (ev):

    -5.2585  -5.1281  -5.1281  -5.1059  -5.0185   0.5721  16.6029  17.3969
    17.3969  20.4387  21.9324

          k =-0.1667 0.5000-0.1667 (  2376 PWs)   bands (ev):

    -5.2697  -5.1596  -5.0990  -5.0455  -4.9457   1.8613  12.1436  16.2472
    16.3448  19.9450  22.4342

          k = 0.6667-0.3333 0.6667 (  2364 PWs)   bands (ev):

    -5.2528  -5.1718  -5.1255  -4.9833  -4.8959   3.8084   8.4186  14.6958
    16.3771  19.6496  24.6659

          k = 0.5000-0.1667 0.5000 (  2370 PWs)   bands (ev):

    -5.2156  -5.1817  -5.1290  -4.9738  -4.9539   3.1780   9.4401  14.0158
    17.5614  20.4446  23.9073

          k = 0.3333 0.0000 0.3333 (  2381 PWs)   bands (ev):

    -5.2116  -5.1694  -5.1181  -5.0862  -4.9838   1.3136  13.3451  14.9795
    19.2873  22.2811  23.0831

          k = 0.0000 0.6667 0.0000 (  2373 PWs)   bands (ev):

    -5.3526  -5.2323  -4.9533  -4.9533  -4.9486   2.7679  11.9546  14.9193
    14.9193  18.3384  19.1046

          k = 0.8333-0.1667 0.8333 (  2365 PWs)   bands (ev):

    -5.3372  -5.2384  -4.9751  -4.9377  -4.8834   4.4484   9.6675  12.3066
    14.6604  18.3329  21.3896

          k = 0.6667-0.0000 0.6667 (  2359 PWs)   bands (ev):

    -5.2774  -5.0994  -5.0443  -5.0182  -4.9428   4.7268   9.9816  10.2438
    15.6870  18.9688  26.1572

          k = 0.0000-1.0000 0.0000 (  2346 PWs)   bands (ev):

    -5.3992  -5.3032  -4.9134  -4.8610  -4.8610   5.2265   8.4341  13.9978
    13.9978  17.3935  18.6689

          k = 0.6667-0.3333 1.0000 (  2376 PWs)   bands (ev):

    -5.2471  -5.1947  -5.0828  -4.9580  -4.9438   3.3881  10.7983  12.6390
    15.0138  21.3631  22.3838

          k = 0.5000-0.1667 0.8333 (  2376 PWs)   bands (ev):

    -5.2193  -5.1732  -5.0685  -5.0225  -4.8988   4.7509   9.1171  11.8888
    13.9509  21.5817  23.5973

          k =-0.3333-1.0000 0.0000 (  2374 PWs)   bands (ev):

    -5.2759  -5.2345  -5.0078  -4.9729  -4.8609   5.3119   9.3519  11.7815
    12.4496  20.9708  21.8581

     the Fermi energy is    12.0474 ev

!    total energy              =    -135.42931353 Ry
     Harris-Foulkes estimate   =    -135.42931353 Ry
     estimated scf accuracy    <          4.1E-10 Ry

     The total energy is the sum of the following terms:

     one-electron contribution =     -31.48053875 Ry
     hartree contribution      =      26.12100162 Ry
     xc contribution           =     -32.62728803 Ry
     ewald contribution        =     -97.43857717 Ry
     smearing contrib. (-TS)   =      -0.00391120 Ry

     convergence has been achieved in   6 iterations

     Writing output data file Pb.save/

     init_run     :      1.48s CPU      1.54s WALL (       1 calls)
     electrons    :     11.50s CPU     12.09s WALL (       1 calls)

     Called by init_run:
     wfcinit      :      0.42s CPU      0.42s WALL (       1 calls)
     potinit      :      0.10s CPU      0.10s WALL (       1 calls)
     hinit0       :      0.82s CPU      0.82s WALL (       1 calls)

     Called by electrons:
     c_bands      :      7.93s CPU      7.94s WALL (       7 calls)
     sum_band     :      2.38s CPU      2.69s WALL (       7 calls)
     v_of_rho     :      0.55s CPU      0.56s WALL (       7 calls)
     newd         :      0.70s CPU      1.03s WALL (       7 calls)
     mix_rho      :      0.05s CPU      0.05s WALL (       7 calls)

     Called by c_bands:
     init_us_2    :      0.15s CPU      0.15s WALL (     240 calls)
     cegterg      :      7.60s CPU      7.60s WALL (     112 calls)

     Called by sum_band:
     sum_band:bec :      0.00s CPU      0.00s WALL (     112 calls)
     addusdens    :      0.82s CPU      1.13s WALL (       7 calls)

     Called by *egterg:
     h_psi        :      6.51s CPU      6.51s WALL (     424 calls)
     s_psi        :      0.25s CPU      0.25s WALL (     424 calls)
     g_psi        :      0.03s CPU      0.03s WALL (     296 calls)
     cdiaghg      :      0.09s CPU      0.09s WALL (     392 calls)

     Called by h_psi:
     h_psi:pot    :      6.49s CPU      6.50s WALL (     424 calls)
     h_psi:calbec :      0.27s CPU      0.27s WALL (     424 calls)
     vloc_psi     :      5.97s CPU      5.97s WALL (     424 calls)
     add_vuspsi   :      0.25s CPU      0.25s WALL (     424 calls)

     General routines
     calbec       :      0.37s CPU      0.37s WALL (     536 calls)
     fft          :      0.31s CPU      0.31s WALL (      90 calls)
     ffts         :      0.02s CPU      0.02s WALL (      14 calls)
     fftw         :      6.54s CPU      6.54s WALL (    7990 calls)
     interpolate  :      0.05s CPU      0.05s WALL (       7 calls)

     Parallel routines

     PWSCF        :     13.78s CPU     14.44s WALL


   This run was terminated on:  16:47:17  30Jun2021            

=------------------------------------------------------------------------------=
   JOB DONE.
=------------------------------------------------------------------------------=
