
     Program PHONON v.6.7MaX starts on  2Jul2021 at 11:36: 0 

     This program is part of the open-source Quantum ESPRESSO suite
     for quantum simulation of materials; please cite
         "P. Giannozzi et al., J. Phys.:Condens. Matter 21 395502 (2009);
         "P. Giannozzi et al., J. Phys.:Condens. Matter 29 465901 (2017);
          URL http://www.quantum-espresso.org", 
     in publications or presentations arising from this work. More details at
     http://www.quantum-espresso.org/quote

     Serial version
     Waiting for input...
     Reading input from standard input

     Reading xml data from directory:

     /home/elena/AEP_DFT/DFT/tmp/vib/Pb.save/
     file Pb.pbe-dn-rrkjus_psl.1.0.0.UPF: wavefunction(s)  6S 5D renormalized

     IMPORTANT: XC functional enforced from input :
     Exchange-correlation= PBE
                           (   1   4   3   4   0   0   0)
     Any further DFT definition will be discarded
     Please, verify this is what you really want


     G-vector sticks info
     --------------------
     sticks:   dense  smooth     PW     G-vecs:    dense   smooth      PW
     Sum        1639     823    253                43895    15593    2685

     Reading collected, re-writing distributed wavefunctions

     Saving dvscf to file. Distribute only q points, not irreducible represetations.

     Calculation of q =    0.0000000   0.0000000   0.0000000

     ABC                                                                        

     bravais-lattice index     =            2
     lattice parameter (alat)  =       9.2226  a.u.
     unit-cell volume          =     196.1075 (a.u.)^3
     number of atoms/cell      =            1
     number of atomic types    =            1
     kinetic-energy cut-off    =      70.0000  Ry
     charge density cut-off    =     560.0000  Ry
     convergence threshold     =      1.0E-12
     beta                      =       0.7000
     number of iterations used =            4
     Exchange-correlation= PBE
                           (   1   4   3   4   0   0   0)


     celldm(1)=    9.22256  celldm(2)=    0.00000  celldm(3)=    0.00000
     celldm(4)=    0.00000  celldm(5)=    0.00000  celldm(6)=    0.00000

     crystal axes: (cart. coord. in units of alat)
               a(1) = ( -0.5000  0.0000  0.5000 )  
               a(2) = (  0.0000  0.5000  0.5000 )  
               a(3) = ( -0.5000  0.5000  0.0000 )  

     reciprocal axes: (cart. coord. in units 2 pi/alat)
               b(1) = ( -1.0000 -1.0000  1.0000 )  
               b(2) = (  1.0000  1.0000  1.0000 )  
               b(3) = ( -1.0000  1.0000 -1.0000 )  


     Atoms inside the unit cell: 

     Cartesian axes

     site n.  atom      mass           positions (alat units)
        1     Pb 207.2000   tau(    1) = (    0.00000    0.00000    0.00000  )

     Computing dynamical matrix for 
                    q = (   0.0000000   0.0000000   0.0000000 )

     49 Sym.Ops. (with q -> -q+G )


     G cutoff = 1206.5105  (  43895 G-vectors)     FFT grid: ( 50, 50, 50)
     G cutoff =  603.2553  (  15593 G-vectors)  smooth grid: ( 36, 36, 36)

     number of k points=   104  Methfessel-Paxton smearing, width (Ry)=  0.0400

     PseudoPot. # 1 for Pb read from file:
     /home/elena/qe-6.7/pseudo/Pb.pbe-dn-rrkjus_psl.1.0.0.UPF
     MD5 check sum: 1cf8f5e18580e6a90a35f98a53d336de
     Pseudo is Ultrasoft + core correction, Zval = 14.0
     Generated using &quot;atomic&quot; code by A. Dal Corso  v.6.3
     Using radial grid of 1281 points,  6 beta functions with: 
                l(1) =   0
                l(2) =   0
                l(3) =   1
                l(4) =   1
                l(5) =   2
                l(6) =   2
     Q(r) pseudized with 0 coefficients 


     Mode symmetry, O_h (m-3m)  point group:


     Atomic displacements:
     There are    1 irreducible representations

     Representation     1      3 modes -  To be done



     Alpha used in Ewald sum =   2.8000
     PHONON       :      6.45s CPU      6.56s WALL



     Representation #   1 modes #   1   2   3

     Self-consistent Calculation

     Pert. #  1: Fermi energy shift (Ry) =     0.0000E+00     7.8366E-38
     Pert. #  2: Fermi energy shift (Ry) =    -2.9296E-25     1.5673E-38
     Pert. #  3: Fermi energy shift (Ry) =    -6.8932E-26     4.7020E-38

      iter #   1 total cpu time :    37.3 secs   av.it.:   8.5
      thresh= 1.000E-02 alpha_mix =  0.700 |ddv_scf|^2 =  1.033E-06

     Pert. #  1: Fermi energy shift (Ry) =     2.7573E-25    -3.6734E-40
     Pert. #  2: Fermi energy shift (Ry) =     1.7233E-25     0.0000E+00
     Pert. #  3: Fermi energy shift (Ry) =     4.8252E-25    -9.7958E-40

      iter #   2 total cpu time :    79.2 secs   av.it.:  14.0
      thresh= 1.017E-04 alpha_mix =  0.700 |ddv_scf|^2 =  9.166E-08

     Pert. #  1: Fermi energy shift (Ry) =     0.0000E+00     9.1835E-41
     Pert. #  2: Fermi energy shift (Ry) =     1.0340E-25     0.0000E+00
     Pert. #  3: Fermi energy shift (Ry) =    -3.4466E-25     2.4489E-40

      iter #   3 total cpu time :   123.6 secs   av.it.:  13.7
      thresh= 3.028E-05 alpha_mix =  0.700 |ddv_scf|^2 =  4.454E-11

     Pert. #  1: Fermi energy shift (Ry) =     0.0000E+00    -1.6980E-41
     Pert. #  2: Fermi energy shift (Ry) =     4.1359E-25     0.0000E+00
     Pert. #  3: Fermi energy shift (Ry) =    -4.8252E-25     0.0000E+00

      iter #   4 total cpu time :   171.5 secs   av.it.:  13.8
      thresh= 6.674E-07 alpha_mix =  0.700 |ddv_scf|^2 =  6.305E-13

     End of self-consistent calculation

     Convergence has been achieved 

     Number of q in the star =    1
     List of q in the star:
          1   0.000000000   0.000000000   0.000000000

     Diagonalizing the dynamical matrix

     q = (    0.000000000   0.000000000   0.000000000 ) 

 **************************************************************************
     freq (    1) =       0.576023 [THz] =      19.214072 [cm-1]
     freq (    2) =       0.576023 [THz] =      19.214072 [cm-1]
     freq (    3) =       0.576023 [THz] =      19.214072 [cm-1]
 **************************************************************************

     Mode symmetry, O_h (m-3m)  point group:

     freq (   1-   3) =         19.2  [cm-1]   --> T_1u G_15  G_4- I  

     PHONON       :   2m51.06s CPU   2m52.45s WALL

     INITIALIZATION: 
     phq_setup    :      0.16s CPU      0.17s WALL (       1 calls)
     phq_init     :      5.47s CPU      5.52s WALL (       1 calls)

     phq_init     :      5.47s CPU      5.52s WALL (       1 calls)
     set_drhoc    :      1.25s CPU      1.25s WALL (       3 calls)
     init_vloc    :      0.00s CPU      0.00s WALL (       1 calls)
     init_us_1    :      0.40s CPU      0.40s WALL (       1 calls)
     newd         :      0.09s CPU      0.11s WALL (       1 calls)
     dvanqq       :      0.63s CPU      0.63s WALL (       1 calls)
     drho         :      2.53s CPU      2.56s WALL (       1 calls)

     DYNAMICAL MATRIX:
     dynmat0      :      1.30s CPU      1.31s WALL (       1 calls)
     phqscf       :    164.62s CPU    165.86s WALL (       1 calls)
     dynmatrix    :      0.00s CPU      0.00s WALL (       1 calls)

     phqscf       :    164.62s CPU    165.86s WALL (       1 calls)
     solve_linter :    163.86s CPU    165.09s WALL (       1 calls)
     drhodv       :      0.75s CPU      0.76s WALL (       1 calls)

     dynmat0      :      1.30s CPU      1.31s WALL (       1 calls)
     dynmat_us    :      0.42s CPU      0.42s WALL (       1 calls)
     d2ionq       :      0.00s CPU      0.00s WALL (       1 calls)
     dynmatcc     :      0.88s CPU      0.89s WALL (       1 calls)

     dynmat_us    :      0.42s CPU      0.42s WALL (       1 calls)
     addusdynmat  :      0.00s CPU      0.00s WALL (       1 calls)

     phqscf       :    164.62s CPU    165.86s WALL (       1 calls)
     solve_linter :    163.86s CPU    165.09s WALL (       1 calls)

     solve_linter :    163.86s CPU    165.09s WALL (       1 calls)
     dvqpsi_us    :      3.77s CPU      3.79s WALL (     312 calls)
     ortho        :      1.60s CPU      1.63s WALL (    1248 calls)
     cgsolve      :    136.39s CPU    137.09s WALL (    1248 calls)
     incdrhoscf   :      9.53s CPU      9.73s WALL (    1248 calls)
     addusddens   :      0.86s CPU      0.87s WALL (       5 calls)
     vpsifft      :      6.15s CPU      6.27s WALL (     936 calls)
     dv_of_drho   :      0.51s CPU      0.52s WALL (      12 calls)
     mix_pot      :      0.05s CPU      0.10s WALL (       4 calls)
     ef_shift     :      0.05s CPU      0.09s WALL (       5 calls)
     localdos     :      0.79s CPU      0.80s WALL (       1 calls)
     symdvscf     :      1.91s CPU      1.91s WALL (       4 calls)
     newdq        :      1.11s CPU      1.13s WALL (       4 calls)
     adddvscf     :      0.47s CPU      0.47s WALL (     936 calls)
     drhodvus     :      0.00s CPU      0.00s WALL (       1 calls)

     dvqpsi_us    :      3.77s CPU      3.79s WALL (     312 calls)
     dvqpsi_us_on :      0.60s CPU      0.60s WALL (     312 calls)

     cgsolve      :    136.39s CPU    137.09s WALL (    1248 calls)
     ch_psi       :    132.96s CPU    133.64s WALL (   18814 calls)

     ch_psi       :    132.96s CPU    133.64s WALL (   18814 calls)
     h_psi        :    113.42s CPU    114.00s WALL (   18814 calls)
     last         :     14.68s CPU     14.75s WALL (   18814 calls)

     h_psi        :    113.42s CPU    114.00s WALL (   18814 calls)
     add_vuspsi   :      4.36s CPU      4.39s WALL (   18814 calls)

     incdrhoscf   :      9.53s CPU      9.73s WALL (    1248 calls)
     addusdbec    :      0.81s CPU      0.81s WALL (    1560 calls)

     drhodvus     :      0.00s CPU      0.00s WALL (       1 calls)

      General routines
     calbec       :     13.25s CPU     13.32s WALL (   42828 calls)
     fft          :      0.55s CPU      0.56s WALL (     286 calls)
     ffts         :      0.79s CPU      0.80s WALL (    1108 calls)
     fftw         :    109.72s CPU    110.53s WALL (  278713 calls)
     davcio       :      0.43s CPU      0.52s WALL (    5445 calls)
     write_rec    :      0.01s CPU      0.02s WALL (       5 calls)


     PHONON       :   2m51.06s CPU   2m52.45s WALL


   This run was terminated on:  11:38:53   2Jul2021            

=------------------------------------------------------------------------------=
   JOB DONE.
=------------------------------------------------------------------------------=
