
     Program PHONON v.6.7MaX starts on  2Jul2021 at 12:38:55 

     This program is part of the open-source Quantum ESPRESSO suite
     for quantum simulation of materials; please cite
         "P. Giannozzi et al., J. Phys.:Condens. Matter 21 395502 (2009);
         "P. Giannozzi et al., J. Phys.:Condens. Matter 29 465901 (2017);
          URL http://www.quantum-espresso.org", 
     in publications or presentations arising from this work. More details at
     http://www.quantum-espresso.org/quote

     Serial version
     Waiting for input...
     Reading input from standard input

     Reading xml data from directory:

     /home/elena/AEP_DFT/DFT/tmp/vib/Pb.save/
     file Pb.pbe-dn-rrkjus_psl.1.0.0.UPF: wavefunction(s)  6S 5D renormalized

     IMPORTANT: XC functional enforced from input :
     Exchange-correlation= PBE
                           (   1   4   3   4   0   0   0)
     Any further DFT definition will be discarded
     Please, verify this is what you really want


     G-vector sticks info
     --------------------
     sticks:   dense  smooth     PW     G-vecs:    dense   smooth      PW
     Sum        1639     823    253                43895    15593    2685

     Reading collected, re-writing distributed wavefunctions

     Saving dvscf to file. Distribute only q points, not irreducible represetations.

     Calculation of q =    0.0000000   0.0000000   0.0000000

     ABC                                                                        

     bravais-lattice index     =            2
     lattice parameter (alat)  =       9.2226  a.u.
     unit-cell volume          =     196.1075 (a.u.)^3
     number of atoms/cell      =            1
     number of atomic types    =            1
     kinetic-energy cut-off    =      70.0000  Ry
     charge density cut-off    =     560.0000  Ry
     convergence threshold     =      1.0E-12
     beta                      =       0.7000
     number of iterations used =            4
     Exchange-correlation= PBE
                           (   1   4   3   4   0   0   0)


     celldm(1)=    9.22256  celldm(2)=    0.00000  celldm(3)=    0.00000
     celldm(4)=    0.00000  celldm(5)=    0.00000  celldm(6)=    0.00000

     crystal axes: (cart. coord. in units of alat)
               a(1) = ( -0.5000  0.0000  0.5000 )  
               a(2) = (  0.0000  0.5000  0.5000 )  
               a(3) = ( -0.5000  0.5000  0.0000 )  

     reciprocal axes: (cart. coord. in units 2 pi/alat)
               b(1) = ( -1.0000 -1.0000  1.0000 )  
               b(2) = (  1.0000  1.0000  1.0000 )  
               b(3) = ( -1.0000  1.0000 -1.0000 )  


     Atoms inside the unit cell: 

     Cartesian axes

     site n.  atom      mass           positions (alat units)
        1     Pb 207.2000   tau(    1) = (    0.00000    0.00000    0.00000  )

     Computing dynamical matrix for 
                    q = (   0.0000000   0.0000000   0.0000000 )

     49 Sym.Ops. (with q -> -q+G )


     G cutoff = 1206.5105  (  43895 G-vectors)     FFT grid: ( 50, 50, 50)
     G cutoff =  603.2553  (  15593 G-vectors)  smooth grid: ( 36, 36, 36)

     number of k points=   195  Methfessel-Paxton smearing, width (Ry)=  0.0100

     PseudoPot. # 1 for Pb read from file:
     /home/elena/qe-6.7/pseudo/Pb.pbe-dn-rrkjus_psl.1.0.0.UPF
     MD5 check sum: 1cf8f5e18580e6a90a35f98a53d336de
     Pseudo is Ultrasoft + core correction, Zval = 14.0
     Generated using &quot;atomic&quot; code by A. Dal Corso  v.6.3
     Using radial grid of 1281 points,  6 beta functions with: 
                l(1) =   0
                l(2) =   0
                l(3) =   1
                l(4) =   1
                l(5) =   2
                l(6) =   2
     Q(r) pseudized with 0 coefficients 


     Mode symmetry, O_h (m-3m)  point group:


     Atomic displacements:
     There are    1 irreducible representations

     Representation     1      3 modes -  To be done



     Alpha used in Ewald sum =   2.8000
     PHONON       :      9.30s CPU      9.46s WALL



     Representation #   1 modes #   1   2   3

     Self-consistent Calculation

     Pert. #  1: Fermi energy shift (Ry) =    -5.5145E-25     8.8162E-39
     Pert. #  2: Fermi energy shift (Ry) =     1.5854E-24     0.0000E+00
     Pert. #  3: Fermi energy shift (Ry) =    -1.5165E-24     0.0000E+00

      iter #   1 total cpu time :    67.3 secs   av.it.:   8.9
      thresh= 1.000E-02 alpha_mix =  0.700 |ddv_scf|^2 =  1.032E-06

     Pert. #  1: Fermi energy shift (Ry) =    -1.6544E-24     0.0000E+00
     Pert. #  2: Fermi energy shift (Ry) =     6.8932E-25     0.0000E+00
     Pert. #  3: Fermi energy shift (Ry) =     2.7573E-25     0.0000E+00

      iter #   2 total cpu time :   144.7 secs   av.it.:  14.7
      thresh= 1.016E-04 alpha_mix =  0.700 |ddv_scf|^2 =  9.121E-08

     Pert. #  1: Fermi energy shift (Ry) =     5.5145E-25     0.0000E+00
     Pert. #  2: Fermi energy shift (Ry) =     5.5145E-25     0.0000E+00
     Pert. #  3: Fermi energy shift (Ry) =     8.2718E-25     0.0000E+00

      iter #   3 total cpu time :   220.7 secs   av.it.:  14.3
      thresh= 3.020E-05 alpha_mix =  0.700 |ddv_scf|^2 =  4.420E-11

     Pert. #  1: Fermi energy shift (Ry) =    -1.1029E-24    -4.5918E-41
     Pert. #  2: Fermi energy shift (Ry) =     1.5165E-24    -1.5306E-41
     Pert. #  3: Fermi energy shift (Ry) =    -2.7573E-25    -4.5918E-41

      iter #   4 total cpu time :   296.7 secs   av.it.:  14.3
      thresh= 6.649E-07 alpha_mix =  0.700 |ddv_scf|^2 =  6.281E-13

     End of self-consistent calculation

     Convergence has been achieved 

     Number of q in the star =    1
     List of q in the star:
          1   0.000000000   0.000000000   0.000000000

     Diagonalizing the dynamical matrix

     q = (    0.000000000   0.000000000   0.000000000 ) 

 **************************************************************************
     freq (    1) =       0.689787 [THz] =      23.008813 [cm-1]
     freq (    2) =       0.689787 [THz] =      23.008813 [cm-1]
     freq (    3) =       0.689787 [THz] =      23.008813 [cm-1]
 **************************************************************************

     Mode symmetry, O_h (m-3m)  point group:

     freq (   1-   3) =         23.0  [cm-1]   --> T_1u G_15  G_4- I  

     PHONON       :   4m55.91s CPU   4m58.18s WALL

     INITIALIZATION: 
     phq_setup    :      0.13s CPU      0.15s WALL (       1 calls)
     phq_init     :      8.30s CPU      8.35s WALL (       1 calls)

     phq_init     :      8.30s CPU      8.35s WALL (       1 calls)
     set_drhoc    :      1.31s CPU      1.31s WALL (       3 calls)
     init_vloc    :      0.00s CPU      0.00s WALL (       1 calls)
     init_us_1    :      0.41s CPU      0.41s WALL (       1 calls)
     newd         :      0.07s CPU      0.11s WALL (       1 calls)
     dvanqq       :      0.69s CPU      0.69s WALL (       1 calls)
     drho         :      4.53s CPU      4.54s WALL (       1 calls)

     DYNAMICAL MATRIX:
     dynmat0      :      1.73s CPU      1.74s WALL (       1 calls)
     phqscf       :    286.61s CPU    288.68s WALL (       1 calls)
     dynmatrix    :      0.00s CPU      0.00s WALL (       1 calls)

     phqscf       :    286.61s CPU    288.68s WALL (       1 calls)
     solve_linter :    285.36s CPU    287.39s WALL (       1 calls)
     drhodv       :      1.25s CPU      1.28s WALL (       1 calls)

     dynmat0      :      1.73s CPU      1.74s WALL (       1 calls)
     dynmat_us    :      0.79s CPU      0.80s WALL (       1 calls)
     d2ionq       :      0.00s CPU      0.00s WALL (       1 calls)
     dynmatcc     :      0.94s CPU      0.94s WALL (       1 calls)

     dynmat_us    :      0.79s CPU      0.80s WALL (       1 calls)
     addusdynmat  :      0.00s CPU      0.00s WALL (       1 calls)

     phqscf       :    286.61s CPU    288.68s WALL (       1 calls)
     solve_linter :    285.36s CPU    287.39s WALL (       1 calls)

     solve_linter :    285.36s CPU    287.39s WALL (       1 calls)
     dvqpsi_us    :      7.19s CPU      7.22s WALL (     585 calls)
     ortho        :      2.85s CPU      2.89s WALL (    2340 calls)
     cgsolve      :    241.71s CPU    242.84s WALL (    2340 calls)
     incdrhoscf   :     16.19s CPU     16.58s WALL (    2340 calls)
     addusddens   :      0.69s CPU      0.69s WALL (       5 calls)
     vpsifft      :     10.33s CPU     10.56s WALL (    1755 calls)
     dv_of_drho   :      0.40s CPU      0.41s WALL (      12 calls)
     mix_pot      :      0.04s CPU      0.07s WALL (       4 calls)
     ef_shift     :      0.07s CPU      0.13s WALL (       5 calls)
     localdos     :      1.53s CPU      1.55s WALL (       1 calls)
     symdvscf     :      1.50s CPU      1.50s WALL (       4 calls)
     newdq        :      0.96s CPU      0.96s WALL (       4 calls)
     adddvscf     :      0.81s CPU      0.81s WALL (    1755 calls)
     drhodvus     :      0.00s CPU      0.00s WALL (       1 calls)

     dvqpsi_us    :      7.19s CPU      7.22s WALL (     585 calls)
     dvqpsi_us_on :      1.15s CPU      1.15s WALL (     585 calls)

     cgsolve      :    241.71s CPU    242.84s WALL (    2340 calls)
     ch_psi       :    235.88s CPU    236.98s WALL (   37180 calls)

     ch_psi       :    235.88s CPU    236.98s WALL (   37180 calls)
     h_psi        :    201.60s CPU    202.57s WALL (   37180 calls)
     last         :     25.73s CPU     25.84s WALL (   37180 calls)

     h_psi        :    201.60s CPU    202.57s WALL (   37180 calls)
     add_vuspsi   :      7.77s CPU      7.80s WALL (   37180 calls)

     incdrhoscf   :     16.19s CPU     16.58s WALL (    2340 calls)
     addusdbec    :      1.44s CPU      1.45s WALL (    2925 calls)

     drhodvus     :      0.00s CPU      0.00s WALL (       1 calls)

      General routines
     calbec       :     23.34s CPU     23.48s WALL (   84110 calls)
     fft          :      0.48s CPU      0.49s WALL (     286 calls)
     ffts         :      1.48s CPU      1.49s WALL (    1989 calls)
     fftw         :    196.53s CPU    197.91s WALL (  522174 calls)
     davcio       :      0.75s CPU      0.87s WALL (   10177 calls)
     write_rec    :      0.00s CPU      0.02s WALL (       5 calls)


     PHONON       :   4m55.91s CPU   4m58.18s WALL


   This run was terminated on:  12:43:53   2Jul2021            

=------------------------------------------------------------------------------=
   JOB DONE.
=------------------------------------------------------------------------------=
