
     Program PWSCF v.6.7MaX starts on  2Jul2021 at 11:14:55 

     This program is part of the open-source Quantum ESPRESSO suite
     for quantum simulation of materials; please cite
         "P. Giannozzi et al., J. Phys.:Condens. Matter 21 395502 (2009);
         "P. Giannozzi et al., J. Phys.:Condens. Matter 29 465901 (2017);
          URL http://www.quantum-espresso.org", 
     in publications or presentations arising from this work. More details at
     http://www.quantum-espresso.org/quote

     Serial version
     Waiting for input...
     Reading input from standard input

     Current dimensions of program PWSCF are:
     Max number of different atomic species (ntypx) = 10
     Max number of k-points (npk) =  40000
     Max angular momentum in pseudopotentials (lmaxx) =  3
     file Pb.pbe-dn-rrkjus_psl.1.0.0.UPF: wavefunction(s)  6S 5D renormalized

     G-vector sticks info
     --------------------
     sticks:   dense  smooth     PW     G-vecs:    dense   smooth      PW
     Sum        1639     823    253                43895    15593    2685


     Title: 
     Lead                                                                       


     bravais-lattice index     =            2
     lattice parameter (alat)  =       9.2226  a.u.
     unit-cell volume          =     196.1075 (a.u.)^3
     number of atoms/cell      =            1
     number of atomic types    =            1
     number of electrons       =        14.00
     number of Kohn-Sham states=           11
     kinetic-energy cutoff     =      70.0000  Ry
     charge density cutoff     =     560.0000  Ry
     scf convergence threshold =      1.0E-09
     mixing beta               =       0.7000
     number of iterations used =            8  plain     mixing
     Exchange-correlation= PBE
                           (   1   4   3   4   0   0   0)

     celldm(1)=   9.222558  celldm(2)=   0.000000  celldm(3)=   0.000000
     celldm(4)=   0.000000  celldm(5)=   0.000000  celldm(6)=   0.000000

     crystal axes: (cart. coord. in units of alat)
               a(1) = (  -0.500000   0.000000   0.500000 )  
               a(2) = (   0.000000   0.500000   0.500000 )  
               a(3) = (  -0.500000   0.500000   0.000000 )  

     reciprocal axes: (cart. coord. in units 2 pi/alat)
               b(1) = ( -1.000000 -1.000000  1.000000 )  
               b(2) = (  1.000000  1.000000  1.000000 )  
               b(3) = ( -1.000000  1.000000 -1.000000 )  


     PseudoPot. # 1 for Pb read from file:
     /home/elena/qe-6.7/pseudo/Pb.pbe-dn-rrkjus_psl.1.0.0.UPF
     MD5 check sum: 1cf8f5e18580e6a90a35f98a53d336de
     Pseudo is Ultrasoft + core correction, Zval = 14.0
     Generated using &quot;atomic&quot; code by A. Dal Corso  v.6.3
     Using radial grid of 1281 points,  6 beta functions with: 
                l(1) =   0
                l(2) =   0
                l(3) =   1
                l(4) =   1
                l(5) =   2
                l(6) =   2
     Q(r) pseudized with 0 coefficients 


     atomic species   valence    mass     pseudopotential
        Pb            14.00   207.20000     Pb( 1.00)

     48 Sym. Ops., with inversion, found



   Cartesian axes

     site n.     atom                  positions (alat units)
         1           Pb  tau(   1) = (   0.0000000   0.0000000   0.0000000  )

     number of k points=    47  Methfessel-Paxton smearing, width (Ry)=  0.0300
                       cart. coord. in units 2pi/alat
        k(    1) = (   0.0000000   0.0000000   0.0000000), wk =   0.0020000
        k(    2) = (  -0.1000000   0.1000000  -0.1000000), wk =   0.0160000
        k(    3) = (  -0.2000000   0.2000000  -0.2000000), wk =   0.0160000
        k(    4) = (  -0.3000000   0.3000000  -0.3000000), wk =   0.0160000
        k(    5) = (  -0.4000000   0.4000000  -0.4000000), wk =   0.0160000
        k(    6) = (   0.5000000  -0.5000000   0.5000000), wk =   0.0080000
        k(    7) = (   0.0000000   0.2000000   0.0000000), wk =   0.0120000
        k(    8) = (  -0.1000000   0.3000000  -0.1000000), wk =   0.0480000
        k(    9) = (  -0.2000000   0.4000000  -0.2000000), wk =   0.0480000
        k(   10) = (  -0.3000000   0.5000000  -0.3000000), wk =   0.0480000
        k(   11) = (   0.6000000  -0.4000000   0.6000000), wk =   0.0480000
        k(   12) = (   0.5000000  -0.3000000   0.5000000), wk =   0.0480000
        k(   13) = (   0.4000000  -0.2000000   0.4000000), wk =   0.0480000
        k(   14) = (   0.3000000  -0.1000000   0.3000000), wk =   0.0480000
        k(   15) = (   0.2000000   0.0000000   0.2000000), wk =   0.0240000
        k(   16) = (   0.0000000   0.4000000   0.0000000), wk =   0.0120000
        k(   17) = (  -0.1000000   0.5000000  -0.1000000), wk =   0.0480000
        k(   18) = (  -0.2000000   0.6000000  -0.2000000), wk =   0.0480000
        k(   19) = (   0.7000000  -0.3000000   0.7000000), wk =   0.0480000
        k(   20) = (   0.6000000  -0.2000000   0.6000000), wk =   0.0480000
        k(   21) = (   0.5000000  -0.1000000   0.5000000), wk =   0.0480000
        k(   22) = (   0.4000000   0.0000000   0.4000000), wk =   0.0240000
        k(   23) = (   0.0000000   0.6000000   0.0000000), wk =   0.0120000
        k(   24) = (  -0.1000000   0.7000000  -0.1000000), wk =   0.0480000
        k(   25) = (   0.8000000  -0.2000000   0.8000000), wk =   0.0480000
        k(   26) = (   0.7000000  -0.1000000   0.7000000), wk =   0.0480000
        k(   27) = (   0.6000000  -0.0000000   0.6000000), wk =   0.0240000
        k(   28) = (   0.0000000   0.8000000   0.0000000), wk =   0.0120000
        k(   29) = (   0.9000000  -0.1000000   0.9000000), wk =   0.0480000
        k(   30) = (   0.8000000   0.0000000   0.8000000), wk =   0.0240000
        k(   31) = (   0.0000000  -1.0000000   0.0000000), wk =   0.0060000
        k(   32) = (  -0.2000000   0.4000000   0.0000000), wk =   0.0480000
        k(   33) = (  -0.3000000   0.5000000  -0.1000000), wk =   0.0960000
        k(   34) = (   0.6000000  -0.4000000   0.8000000), wk =   0.0960000
        k(   35) = (   0.5000000  -0.3000000   0.7000000), wk =   0.0480000
        k(   36) = (  -0.2000000   0.6000000   0.0000000), wk =   0.0480000
        k(   37) = (   0.7000000  -0.3000000   0.9000000), wk =   0.0960000
        k(   38) = (   0.6000000  -0.2000000   0.8000000), wk =   0.0960000
        k(   39) = (   0.5000000  -0.1000000   0.7000000), wk =   0.0960000
        k(   40) = (   0.4000000   0.0000000   0.6000000), wk =   0.0480000
        k(   41) = (   0.8000000  -0.2000000   1.0000000), wk =   0.0480000
        k(   42) = (   0.7000000  -0.1000000   0.9000000), wk =   0.0960000
        k(   43) = (   0.6000000   0.0000000   0.8000000), wk =   0.0480000
        k(   44) = (  -0.2000000  -1.0000000   0.0000000), wk =   0.0240000
        k(   45) = (   0.6000000  -0.2000000   1.0000000), wk =   0.0480000
        k(   46) = (   0.5000000  -0.1000000   0.9000000), wk =   0.0480000
        k(   47) = (  -0.4000000  -1.0000000   0.0000000), wk =   0.0240000

     Dense  grid:    43895 G-vectors     FFT dimensions: (  50,  50,  50)

     Smooth grid:    15593 G-vectors     FFT dimensions: (  36,  36,  36)

     Estimated max dynamical RAM per process >     169.93 MB

     Initial potential from superposition of free atoms

     starting charge   13.99765, renormalised to   14.00000
     Starting wfcs are    9 randomized atomic wfcs +    2 random wfcs

     total cpu time spent up to now is        1.6 secs

     Self-consistent Calculation

     iteration #  1     ecut=    70.00 Ry     beta= 0.70
     Davidson diagonalization with overlap
     ethr =  1.00E-02,  avg # of iterations =  4.6

     Threshold (ethr) on eigenvalues was too large:
     Diagonalizing with lowered threshold

     Davidson diagonalization with overlap
     ethr =  1.70E-05,  avg # of iterations =  5.9

     total cpu time spent up to now is        7.5 secs

     total energy              =    -135.43477750 Ry
     estimated scf accuracy    <       0.00239606 Ry

     iteration #  2     ecut=    70.00 Ry     beta= 0.70
     Davidson diagonalization with overlap
     ethr =  1.71E-05,  avg # of iterations =  2.1

     total cpu time spent up to now is       10.1 secs

     total energy              =    -135.43528526 Ry
     estimated scf accuracy    <       0.00018902 Ry

     iteration #  3     ecut=    70.00 Ry     beta= 0.70
     Davidson diagonalization with overlap
     ethr =  1.35E-06,  avg # of iterations =  3.0

     total cpu time spent up to now is       12.8 secs

     total energy              =    -135.43531525 Ry
     estimated scf accuracy    <       0.00000779 Ry

     iteration #  4     ecut=    70.00 Ry     beta= 0.70
     Davidson diagonalization with overlap
     ethr =  5.56E-08,  avg # of iterations =  2.0

     total cpu time spent up to now is       15.4 secs

     total energy              =    -135.43531616 Ry
     estimated scf accuracy    <       0.00000060 Ry

     iteration #  5     ecut=    70.00 Ry     beta= 0.70
     Davidson diagonalization with overlap
     ethr =  4.31E-09,  avg # of iterations =  2.0

     total cpu time spent up to now is       18.0 secs

     total energy              =    -135.43531636 Ry
     estimated scf accuracy    <       0.00000010 Ry

     iteration #  6     ecut=    70.00 Ry     beta= 0.70
     Davidson diagonalization with overlap
     ethr =  6.81E-10,  avg # of iterations =  1.7

     total cpu time spent up to now is       20.3 secs

     total energy              =    -135.43531637 Ry
     estimated scf accuracy    <          2.6E-09 Ry

     iteration #  7     ecut=    70.00 Ry     beta= 0.70
     Davidson diagonalization with overlap
     ethr =  1.85E-11,  avg # of iterations =  2.4

     total cpu time spent up to now is       22.9 secs

     End of self-consistent calculation

          k = 0.0000 0.0000 0.0000 (  1917 PWs)   bands (ev):

    -5.2347  -5.2347  -5.2347  -5.0755  -5.0755  -0.1820  19.6432  19.6432
    19.6432  21.9775  23.7518

          k =-0.1000 0.1000-0.1000 (  1940 PWs)   bands (ev):

    -5.2357  -5.2193  -5.2193  -5.0762  -5.0762   0.0192  17.5273  19.3927
    19.3927  21.6088  25.1404

          k =-0.2000 0.2000-0.2000 (  1943 PWs)   bands (ev):

    -5.2415  -5.1959  -5.1959  -5.0599  -5.0599   0.6245  14.2697  18.8409
    18.8409  21.2657  24.4744

          k =-0.3000 0.3000-0.3000 (  1934 PWs)   bands (ev):

    -5.2543  -5.2000  -5.2000  -5.0051  -5.0051   1.6181  11.2227  18.2731
    18.2731  21.1165  23.1781

          k =-0.4000 0.4000-0.4000 (  1937 PWs)   bands (ev):

    -5.2686  -5.2158  -5.2158  -4.9474  -4.9474   2.8794   8.6957  17.8647
    17.8647  21.1875  22.2227

          k = 0.5000-0.5000 0.5000 (  1946 PWs)   bands (ev):

    -5.2750  -5.2230  -5.2230  -4.9239  -4.9239   3.7001   7.4489  17.7168
    17.7168  21.3865  21.7293

          k = 0.0000 0.2000 0.0000 (  1941 PWs)   bands (ev):

    -5.2529  -5.2035  -5.2035  -5.0946  -5.0624   0.0861  18.1893  18.5766
    18.5766  21.1816  24.1170

          k =-0.1000 0.3000-0.1000 (  1945 PWs)   bands (ev):

    -5.2626  -5.1763  -5.1721  -5.1051  -5.0421   0.5567  15.3805  17.7860
    18.3575  21.3285  22.7872

          k =-0.2000 0.4000-0.2000 (  1944 PWs)   bands (ev):

    -5.2637  -5.1846  -5.1662  -5.0681  -4.9928   1.4229  12.3055  17.2234
    17.6678  20.9678  23.2288

          k =-0.3000 0.5000-0.3000 (  1935 PWs)   bands (ev):

    -5.2649  -5.2067  -5.1811  -5.0072  -4.9402   2.6134   9.6171  16.8804
    16.9853  20.4712  23.5225

          k = 0.6000-0.4000 0.6000 (  1942 PWs)   bands (ev):

    -5.2630  -5.2212  -5.1947  -4.9592  -4.9222   3.7218   7.8186  16.2379
    17.1229  20.4099  23.1369

          k = 0.5000-0.3000 0.5000 (  1941 PWs)   bands (ev):

    -5.2541  -5.2215  -5.1957  -4.9522  -4.9457   3.4249   8.2581  15.8922
    17.6386  20.7569  22.7795

          k = 0.4000-0.2000 0.4000 (  1942 PWs)   bands (ev):

    -5.2453  -5.2065  -5.1833  -5.0185  -4.9704   2.1900  10.4591  15.9087
    18.4546  21.4671  22.6346

          k = 0.3000-0.1000 0.3000 (  1940 PWs)   bands (ev):

    -5.2420  -5.1900  -5.1726  -5.0843  -5.0163   1.0919  13.2847  16.3118
    19.3361  22.1927  22.9653

          k = 0.2000 0.0000 0.2000 (  1945 PWs)   bands (ev):

    -5.2413  -5.1988  -5.1945  -5.0933  -5.0551   0.3553  16.0991  17.3458
    19.7780  22.0143  24.1662

          k = 0.0000 0.4000 0.0000 (  1956 PWs)   bands (ev):

    -5.3002  -5.1505  -5.1196  -5.1196  -5.0277   0.8915  15.7291  16.8070
    16.8070  20.0951  20.9433

          k =-0.1000 0.5000-0.1000 (  1946 PWs)   bands (ev):

    -5.3137  -5.1841  -5.0925  -5.0709  -4.9871   1.6227  13.3670  16.0574
    16.1246  19.7822  20.8985

          k =-0.2000 0.6000-0.2000 (  1936 PWs)   bands (ev):

    -5.3046  -5.1971  -5.1027  -5.0404  -4.9343   2.6994  10.7844  14.9346
    15.8331  19.3399  22.9064

          k = 0.7000-0.3000 0.7000 (  1940 PWs)   bands (ev):

    -5.2895  -5.1845  -5.1196  -5.0242  -4.9176   3.8704   8.7752  13.9396
    15.9787  19.3122  25.2137

          k = 0.6000-0.2000 0.6000 (  1941 PWs)   bands (ev):

    -5.2676  -5.1757  -5.1292  -5.0083  -4.9513   4.1180   8.4392  13.2949
    16.5630  19.6512  24.9217

          k = 0.5000-0.1000 0.5000 (  1940 PWs)   bands (ev):

    -5.2371  -5.1917  -5.1256  -5.0239  -4.9918   3.0827  10.1035  13.1258
    17.5225  20.3479  24.5089

          k = 0.4000 0.0000 0.4000 (  1947 PWs)   bands (ev):

    -5.2214  -5.2062  -5.1095  -5.1074  -4.9911   1.9401  12.1707  13.8519
    18.6527  21.4040  23.8186

          k = 0.0000 0.6000 0.0000 (  1960 PWs)   bands (ev):

    -5.3583  -5.2286  -5.0117  -5.0117  -4.9847   2.2154  12.9152  15.3035
    15.3035  18.7940  19.2924

          k =-0.1000 0.7000-0.1000 (  1945 PWs)   bands (ev):

    -5.3650  -5.2540  -5.0090  -4.9773  -4.9321   3.1572  11.2307  13.9807
    14.8872  18.5150  20.0850

          k = 0.8000-0.2000 0.8000 (  1934 PWs)   bands (ev):

    -5.3413  -5.2337  -5.0261  -4.9881  -4.9105   4.2560   9.6948  12.3325
    14.9319  18.5284  22.3543

          k = 0.7000-0.1000 0.7000 (  1930 PWs)   bands (ev):

    -5.3107  -5.1593  -5.0441  -5.0392  -4.9409   4.7987   9.1993  11.1431
    15.4423  18.8216  25.1675

          k = 0.6000-0.0000 0.6000 (  1933 PWs)   bands (ev):

    -5.2738  -5.1189  -5.0678  -5.0616  -4.9991   4.1334  10.0181  10.9889
    16.3607  19.4239  27.2827

          k = 0.0000 0.8000 0.0000 (  1944 PWs)   bands (ev):

    -5.4049  -5.2975  -4.9495  -4.9207  -4.9207   3.9437  10.0960  14.3281
    14.3281  17.7092  18.8182

          k = 0.9000-0.1000 0.9000 (  1940 PWs)   bands (ev):

    -5.3967  -5.3020  -4.9557  -4.9151  -4.8976   4.8418   9.0615  12.9967
    14.2343  17.9515  19.7058

          k = 0.8000 0.0000 0.8000 (  1930 PWs)   bands (ev):

    -5.3562  -5.2506  -4.9819  -4.9641  -4.9159   5.2131   9.0979  11.2221
    14.6214  18.2852  22.1565

          k = 0.0000-1.0000 0.0000 (  1964 PWs)   bands (ev):

    -5.4227  -5.3250  -4.9362  -4.8852  -4.8852   5.2150   8.4282  13.9912
    13.9912  17.3856  18.6624

          k =-0.2000 0.4000 0.0000 (  1951 PWs)   bands (ev):

    -5.2720  -5.1715  -5.1234  -5.1188  -5.0095   1.1584  14.0067  15.5988
    18.2428  21.6073  21.6803

          k =-0.3000 0.5000-0.1000 (  1943 PWs)   bands (ev):

    -5.2617  -5.1941  -5.1304  -5.0631  -4.9701   2.1336  11.5569  14.6492
    17.3235  21.0616  23.0699

          k = 0.6000-0.4000 0.8000 (  1935 PWs)   bands (ev):

    -5.2485  -5.2175  -5.1365  -5.0163  -4.9410   3.3440   9.2202  14.3891
    16.4209  20.7608  23.1828

          k = 0.5000-0.3000 0.7000 (  1936 PWs)   bands (ev):

    -5.2363  -5.2352  -5.1372  -4.9976  -4.9310   4.0993   8.0742  14.3618
    16.0450  20.6686  22.9922

          k =-0.2000 0.6000 0.0000 (  1950 PWs)   bands (ev):

    -5.3209  -5.2132  -5.0782  -5.0143  -4.9595   2.4622  12.0975  14.1726
    15.5684  20.0776  20.7811

          k = 0.7000-0.3000 0.9000 (  1936 PWs)   bands (ev):

    -5.2978  -5.2163  -5.0877  -4.9958  -4.9344   3.5732  10.2906  13.1002
    14.7328  20.1888  22.6688

          k = 0.6000-0.2000 0.8000 (  1940 PWs)   bands (ev):

    -5.2745  -5.1866  -5.0850  -5.0350  -4.9254   4.5139   8.9458  12.3623
    14.6237  20.3851  24.4136

          k = 0.5000-0.1000 0.7000 (  1939 PWs)   bands (ev):

    -5.2500  -5.1828  -5.0885  -5.0406  -4.9552   4.2441   9.3755  11.9483
    15.1889  20.8518  24.0737

          k = 0.4000 0.0000 0.6000 (  1936 PWs)   bands (ev):

    -5.2230  -5.2206  -5.1126  -5.0181  -4.9852   3.1577  10.8127  12.4322
    16.1972  21.4408  23.6070

          k = 0.8000-0.2000 1.0000 (  1945 PWs)   bands (ev):

    -5.3610  -5.2721  -5.0068  -4.9342  -4.9215   4.1189  10.0868  13.2530
    13.6967  19.2551  20.2456

          k = 0.7000-0.1000 0.9000 (  1932 PWs)   bands (ev):

    -5.3229  -5.2433  -5.0279  -4.9801  -4.9022   4.9823   9.4285  11.5753
    13.5929  19.7729  22.3160

          k = 0.6000 0.0000 0.8000 (  1937 PWs)   bands (ev):

    -5.2867  -5.1599  -5.0873  -5.0267  -4.9251   4.9995  10.0551  10.1882
    14.1754  20.2391  25.1966

          k =-0.2000-1.0000 0.0000 (  1948 PWs)   bands (ev):

    -5.3764  -5.2964  -4.9604  -4.9422  -4.8851   5.2533   8.7651  12.9353
    13.1163  18.9967  20.0660

          k = 0.6000-0.2000 1.0000 (  1928 PWs)   bands (ev):

    -5.2421  -5.2299  -5.1040  -4.9962  -4.9234   4.5564   9.9961  11.5205
    13.4732  21.9513  23.0521

          k = 0.5000-0.1000 0.9000 (  1932 PWs)   bands (ev):

    -5.2365  -5.1803  -5.1347  -5.0277  -4.9032   5.0763   9.7475  10.9894
    12.9700  22.2629  23.9736

          k =-0.4000-1.0000 0.0000 (  1930 PWs)   bands (ev):

    -5.2506  -5.2378  -5.0852  -5.0121  -4.8850   5.3192   9.7320  11.2062
    12.2304  22.0175  22.8560

     the Fermi energy is    11.9097 ev

!    total energy              =    -135.43531637 Ry
     estimated scf accuracy    <          1.5E-10 Ry
     smearing contrib. (-TS)   =       0.00035400 Ry
     internal energy E=F+TS    =    -135.43567037 Ry

     The total energy is F=E-TS. E is the sum of the following terms:
     one-electron contribution =     -31.47259908 Ry
     hartree contribution      =      26.10002814 Ry
     xc contribution           =     -32.62452227 Ry
     ewald contribution        =     -97.43857717 Ry

     convergence has been achieved in   7 iterations

     Writing output data file /home/elena/AEP_DFT/DFT/tmp/vib/Pb.save/

     init_run     :      1.38s CPU      1.46s WALL (       1 calls)
     electrons    :     20.59s CPU     21.34s WALL (       1 calls)

     Called by init_run:
     wfcinit      :      0.68s CPU      0.70s WALL (       1 calls)
     potinit      :      0.08s CPU      0.08s WALL (       1 calls)
     hinit0       :      0.52s CPU      0.52s WALL (       1 calls)

     Called by electrons:
     c_bands      :     16.12s CPU     16.21s WALL (       8 calls)
     sum_band     :      3.40s CPU      3.78s WALL (       8 calls)
     v_of_rho     :      0.47s CPU      0.49s WALL (       8 calls)
     newd         :      0.68s CPU      0.96s WALL (       8 calls)
     mix_rho      :      0.03s CPU      0.04s WALL (       8 calls)

     Called by c_bands:
     init_us_2    :      0.40s CPU      0.41s WALL (     799 calls)
     cegterg      :     15.49s CPU     15.58s WALL (     376 calls)

     Called by *egterg:
     cdiaghg      :      0.19s CPU      0.19s WALL (    1443 calls)
     h_psi        :     12.82s CPU     12.90s WALL (    1537 calls)
     s_psi        :      0.52s CPU      0.53s WALL (    1537 calls)
     g_psi        :      0.06s CPU      0.06s WALL (    1114 calls)

     Called by h_psi:
     h_psi:calbec :      0.61s CPU      0.61s WALL (    1537 calls)
     vloc_psi     :     11.65s CPU     11.71s WALL (    1537 calls)
     add_vuspsi   :      0.52s CPU      0.53s WALL (    1537 calls)

     General routines
     calbec       :      0.82s CPU      0.82s WALL (    1913 calls)
     fft          :      0.21s CPU      0.21s WALL (     103 calls)
     ffts         :      0.02s CPU      0.02s WALL (      16 calls)
     fftw         :     12.53s CPU     12.60s WALL (   26912 calls)
     interpolate  :      0.03s CPU      0.03s WALL (       8 calls)


     PWSCF        :     22.13s CPU     22.97s WALL


   This run was terminated on:  11:15:18   2Jul2021            

=------------------------------------------------------------------------------=
   JOB DONE.
=------------------------------------------------------------------------------=
