
     Program PHONON v.6.7MaX starts on  2Jul2021 at 12: 9:55 

     This program is part of the open-source Quantum ESPRESSO suite
     for quantum simulation of materials; please cite
         "P. Giannozzi et al., J. Phys.:Condens. Matter 21 395502 (2009);
         "P. Giannozzi et al., J. Phys.:Condens. Matter 29 465901 (2017);
          URL http://www.quantum-espresso.org", 
     in publications or presentations arising from this work. More details at
     http://www.quantum-espresso.org/quote

     Serial version
     Waiting for input...
     Reading input from standard input

     Reading xml data from directory:

     /home/elena/AEP_DFT/DFT/tmp/vib/Pb.save/
     file Pb.pbe-dn-rrkjus_psl.1.0.0.UPF: wavefunction(s)  6S 5D renormalized

     IMPORTANT: XC functional enforced from input :
     Exchange-correlation= PBE
                           (   1   4   3   4   0   0   0)
     Any further DFT definition will be discarded
     Please, verify this is what you really want


     G-vector sticks info
     --------------------
     sticks:   dense  smooth     PW     G-vecs:    dense   smooth      PW
     Sum        1639     823    253                43895    15593    2685

     Reading collected, re-writing distributed wavefunctions

     Saving dvscf to file. Distribute only q points, not irreducible represetations.

     Calculation of q =    0.0000000   0.0000000   0.0000000

     ABC                                                                        

     bravais-lattice index     =            2
     lattice parameter (alat)  =       9.2226  a.u.
     unit-cell volume          =     196.1075 (a.u.)^3
     number of atoms/cell      =            1
     number of atomic types    =            1
     kinetic-energy cut-off    =      70.0000  Ry
     charge density cut-off    =     560.0000  Ry
     convergence threshold     =      1.0E-12
     beta                      =       0.7000
     number of iterations used =            4
     Exchange-correlation= PBE
                           (   1   4   3   4   0   0   0)


     celldm(1)=    9.22256  celldm(2)=    0.00000  celldm(3)=    0.00000
     celldm(4)=    0.00000  celldm(5)=    0.00000  celldm(6)=    0.00000

     crystal axes: (cart. coord. in units of alat)
               a(1) = ( -0.5000  0.0000  0.5000 )  
               a(2) = (  0.0000  0.5000  0.5000 )  
               a(3) = ( -0.5000  0.5000  0.0000 )  

     reciprocal axes: (cart. coord. in units 2 pi/alat)
               b(1) = ( -1.0000 -1.0000  1.0000 )  
               b(2) = (  1.0000  1.0000  1.0000 )  
               b(3) = ( -1.0000  1.0000 -1.0000 )  


     Atoms inside the unit cell: 

     Cartesian axes

     site n.  atom      mass           positions (alat units)
        1     Pb 207.2000   tau(    1) = (    0.00000    0.00000    0.00000  )

     Computing dynamical matrix for 
                    q = (   0.0000000   0.0000000   0.0000000 )

     49 Sym.Ops. (with q -> -q+G )


     G cutoff = 1206.5105  (  43895 G-vectors)     FFT grid: ( 50, 50, 50)
     G cutoff =  603.2553  (  15593 G-vectors)  smooth grid: ( 36, 36, 36)

     number of k points=   145  Methfessel-Paxton smearing, width (Ry)=  0.0100

     PseudoPot. # 1 for Pb read from file:
     /home/elena/qe-6.7/pseudo/Pb.pbe-dn-rrkjus_psl.1.0.0.UPF
     MD5 check sum: 1cf8f5e18580e6a90a35f98a53d336de
     Pseudo is Ultrasoft + core correction, Zval = 14.0
     Generated using &quot;atomic&quot; code by A. Dal Corso  v.6.3
     Using radial grid of 1281 points,  6 beta functions with: 
                l(1) =   0
                l(2) =   0
                l(3) =   1
                l(4) =   1
                l(5) =   2
                l(6) =   2
     Q(r) pseudized with 0 coefficients 


     Mode symmetry, O_h (m-3m)  point group:


     Atomic displacements:
     There are    1 irreducible representations

     Representation     1      3 modes -  To be done



     Alpha used in Ewald sum =   2.8000
     PHONON       :      8.19s CPU      8.42s WALL



     Representation #   1 modes #   1   2   3

     Self-consistent Calculation

     Pert. #  1: Fermi energy shift (Ry) =     8.2718E-25     0.0000E+00
     Pert. #  2: Fermi energy shift (Ry) =     9.1335E-25     0.0000E+00
     Pert. #  3: Fermi energy shift (Ry) =     2.0680E-25     0.0000E+00

      iter #   1 total cpu time :    53.5 secs   av.it.:   8.9
      thresh= 1.000E-02 alpha_mix =  0.700 |ddv_scf|^2 =  1.033E-06

     Pert. #  1: Fermi energy shift (Ry) =    -8.2718E-25     0.0000E+00
     Pert. #  2: Fermi energy shift (Ry) =    -6.8932E-25     0.0000E+00
     Pert. #  3: Fermi energy shift (Ry) =    -6.8932E-26     0.0000E+00

      iter #   2 total cpu time :   113.6 secs   av.it.:  14.6
      thresh= 1.016E-04 alpha_mix =  0.700 |ddv_scf|^2 =  9.153E-08

     Pert. #  1: Fermi energy shift (Ry) =     5.5145E-25     0.0000E+00
     Pert. #  2: Fermi energy shift (Ry) =     6.8932E-25     0.0000E+00
     Pert. #  3: Fermi energy shift (Ry) =     6.8932E-26     0.0000E+00

      iter #   3 total cpu time :   171.2 secs   av.it.:  14.2
      thresh= 3.025E-05 alpha_mix =  0.700 |ddv_scf|^2 =  4.461E-11

     Pert. #  1: Fermi energy shift (Ry) =     5.5145E-25     6.8877E-41
     Pert. #  2: Fermi energy shift (Ry) =     1.0340E-25     4.5918E-41
     Pert. #  3: Fermi energy shift (Ry) =    -1.3786E-25    -1.5306E-41

      iter #   4 total cpu time :   230.0 secs   av.it.:  14.3
      thresh= 6.679E-07 alpha_mix =  0.700 |ddv_scf|^2 =  6.340E-13

     End of self-consistent calculation

     Convergence has been achieved 

     Number of q in the star =    1
     List of q in the star:
          1   0.000000000   0.000000000   0.000000000

     Diagonalizing the dynamical matrix

     q = (    0.000000000   0.000000000   0.000000000 ) 

 **************************************************************************
     freq (    1) =       0.587214 [THz] =      19.587356 [cm-1]
     freq (    2) =       0.587214 [THz] =      19.587356 [cm-1]
     freq (    3) =       0.587214 [THz] =      19.587356 [cm-1]
 **************************************************************************

     Mode symmetry, O_h (m-3m)  point group:

     freq (   1-   3) =         19.6  [cm-1]   --> T_1u G_15  G_4- I  

     PHONON       :   3m49.02s CPU   3m51.30s WALL

     INITIALIZATION: 
     phq_setup    :      0.13s CPU      0.15s WALL (       1 calls)
     phq_init     :      7.25s CPU      7.39s WALL (       1 calls)

     phq_init     :      7.25s CPU      7.39s WALL (       1 calls)
     set_drhoc    :      1.31s CPU      1.32s WALL (       3 calls)
     init_vloc    :      0.00s CPU      0.00s WALL (       1 calls)
     init_us_1    :      0.38s CPU      0.38s WALL (       1 calls)
     newd         :      0.07s CPU      0.11s WALL (       1 calls)
     dvanqq       :      0.70s CPU      0.71s WALL (       1 calls)
     drho         :      3.82s CPU      3.91s WALL (       1 calls)

     DYNAMICAL MATRIX:
     dynmat0      :      1.60s CPU      1.63s WALL (       1 calls)
     phqscf       :    220.83s CPU    222.84s WALL (       1 calls)
     dynmatrix    :      0.00s CPU      0.00s WALL (       1 calls)

     phqscf       :    220.83s CPU    222.84s WALL (       1 calls)
     solve_linter :    219.79s CPU    221.76s WALL (       1 calls)
     drhodv       :      1.04s CPU      1.07s WALL (       1 calls)

     dynmat0      :      1.60s CPU      1.63s WALL (       1 calls)
     dynmat_us    :      0.65s CPU      0.67s WALL (       1 calls)
     d2ionq       :      0.00s CPU      0.00s WALL (       1 calls)
     dynmatcc     :      0.94s CPU      0.95s WALL (       1 calls)

     dynmat_us    :      0.65s CPU      0.67s WALL (       1 calls)
     addusdynmat  :      0.00s CPU      0.00s WALL (       1 calls)

     phqscf       :    220.83s CPU    222.84s WALL (       1 calls)
     solve_linter :    219.79s CPU    221.76s WALL (       1 calls)

     solve_linter :    219.79s CPU    221.76s WALL (       1 calls)
     dvqpsi_us    :      5.55s CPU      5.59s WALL (     435 calls)
     ortho        :      2.18s CPU      2.22s WALL (    1740 calls)
     cgsolve      :    185.14s CPU    186.30s WALL (    1740 calls)
     incdrhoscf   :     12.42s CPU     12.71s WALL (    1740 calls)
     addusddens   :      0.71s CPU      0.73s WALL (       5 calls)
     vpsifft      :      7.87s CPU      8.09s WALL (    1305 calls)
     dv_of_drho   :      0.41s CPU      0.42s WALL (      12 calls)
     mix_pot      :      0.03s CPU      0.07s WALL (       4 calls)
     ef_shift     :      0.04s CPU      0.11s WALL (       5 calls)
     localdos     :      1.32s CPU      1.35s WALL (       1 calls)
     symdvscf     :      1.57s CPU      1.57s WALL (       4 calls)
     newdq        :      1.03s CPU      1.04s WALL (       4 calls)
     adddvscf     :      0.62s CPU      0.63s WALL (    1305 calls)
     drhodvus     :      0.00s CPU      0.00s WALL (       1 calls)

     dvqpsi_us    :      5.55s CPU      5.59s WALL (     435 calls)
     dvqpsi_us_on :      0.89s CPU      0.90s WALL (     435 calls)

     cgsolve      :    185.14s CPU    186.30s WALL (    1740 calls)
     ch_psi       :    180.56s CPU    181.68s WALL (   27526 calls)

     ch_psi       :    180.56s CPU    181.68s WALL (   27526 calls)
     h_psi        :    154.12s CPU    155.10s WALL (   27526 calls)
     last         :     19.80s CPU     19.91s WALL (   27526 calls)

     h_psi        :    154.12s CPU    155.10s WALL (   27526 calls)
     add_vuspsi   :      6.00s CPU      6.04s WALL (   27526 calls)

     incdrhoscf   :     12.42s CPU     12.71s WALL (    1740 calls)
     addusdbec    :      1.13s CPU      1.14s WALL (    2175 calls)

     drhodvus     :      0.00s CPU      0.00s WALL (       1 calls)

      General routines
     calbec       :     18.11s CPU     18.26s WALL (   62302 calls)
     fft          :      0.50s CPU      0.52s WALL (     286 calls)
     ffts         :      1.20s CPU      1.23s WALL (    1489 calls)
     fftw         :    149.40s CPU    150.74s WALL (  386910 calls)
     davcio       :      0.59s CPU      0.70s WALL (    7577 calls)
     write_rec    :      0.00s CPU      0.03s WALL (       5 calls)


     PHONON       :   3m49.02s CPU   3m51.30s WALL


   This run was terminated on:  12:13:46   2Jul2021            

=------------------------------------------------------------------------------=
   JOB DONE.
=------------------------------------------------------------------------------=
