
     Program PHONON v.6.7MaX starts on  2Jul2021 at 11:28:16 

     This program is part of the open-source Quantum ESPRESSO suite
     for quantum simulation of materials; please cite
         "P. Giannozzi et al., J. Phys.:Condens. Matter 21 395502 (2009);
         "P. Giannozzi et al., J. Phys.:Condens. Matter 29 465901 (2017);
          URL http://www.quantum-espresso.org", 
     in publications or presentations arising from this work. More details at
     http://www.quantum-espresso.org/quote

     Serial version
     Waiting for input...
     Reading input from standard input

     Reading xml data from directory:

     /home/elena/AEP_DFT/DFT/tmp/vib/Pb.save/
     file Pb.pbe-dn-rrkjus_psl.1.0.0.UPF: wavefunction(s)  6S 5D renormalized

     IMPORTANT: XC functional enforced from input :
     Exchange-correlation= PBE
                           (   1   4   3   4   0   0   0)
     Any further DFT definition will be discarded
     Please, verify this is what you really want


     G-vector sticks info
     --------------------
     sticks:   dense  smooth     PW     G-vecs:    dense   smooth      PW
     Sum        1639     823    253                43895    15593    2685

     Reading collected, re-writing distributed wavefunctions

     Saving dvscf to file. Distribute only q points, not irreducible represetations.

     Calculation of q =    0.0000000   0.0000000   0.0000000

     ABC                                                                        

     bravais-lattice index     =            2
     lattice parameter (alat)  =       9.2226  a.u.
     unit-cell volume          =     196.1075 (a.u.)^3
     number of atoms/cell      =            1
     number of atomic types    =            1
     kinetic-energy cut-off    =      70.0000  Ry
     charge density cut-off    =     560.0000  Ry
     convergence threshold     =      1.0E-12
     beta                      =       0.7000
     number of iterations used =            4
     Exchange-correlation= PBE
                           (   1   4   3   4   0   0   0)


     celldm(1)=    9.22256  celldm(2)=    0.00000  celldm(3)=    0.00000
     celldm(4)=    0.00000  celldm(5)=    0.00000  celldm(6)=    0.00000

     crystal axes: (cart. coord. in units of alat)
               a(1) = ( -0.5000  0.0000  0.5000 )  
               a(2) = (  0.0000  0.5000  0.5000 )  
               a(3) = ( -0.5000  0.5000  0.0000 )  

     reciprocal axes: (cart. coord. in units 2 pi/alat)
               b(1) = ( -1.0000 -1.0000  1.0000 )  
               b(2) = (  1.0000  1.0000  1.0000 )  
               b(3) = ( -1.0000  1.0000 -1.0000 )  


     Atoms inside the unit cell: 

     Cartesian axes

     site n.  atom      mass           positions (alat units)
        1     Pb 207.2000   tau(    1) = (    0.00000    0.00000    0.00000  )

     Computing dynamical matrix for 
                    q = (   0.0000000   0.0000000   0.0000000 )

     49 Sym.Ops. (with q -> -q+G )


     G cutoff = 1206.5105  (  43895 G-vectors)     FFT grid: ( 50, 50, 50)
     G cutoff =  603.2553  (  15593 G-vectors)  smooth grid: ( 36, 36, 36)

     number of k points=    72  Methfessel-Paxton smearing, width (Ry)=  0.0200
                       cart. coord. in units 2pi/alat
        k(    1) = (   0.0000000   0.0000000   0.0000000), wk =   0.0011574
        k(    2) = (  -0.0833333   0.0833333  -0.0833333), wk =   0.0092593
        k(    3) = (  -0.1666667   0.1666667  -0.1666667), wk =   0.0092593
        k(    4) = (  -0.2500000   0.2500000  -0.2500000), wk =   0.0092593
        k(    5) = (  -0.3333333   0.3333333  -0.3333333), wk =   0.0092593
        k(    6) = (  -0.4166667   0.4166667  -0.4166667), wk =   0.0092593
        k(    7) = (   0.5000000  -0.5000000   0.5000000), wk =   0.0046296
        k(    8) = (   0.0000000   0.1666667   0.0000000), wk =   0.0069444
        k(    9) = (  -0.0833333   0.2500000  -0.0833333), wk =   0.0277778
        k(   10) = (  -0.1666667   0.3333333  -0.1666667), wk =   0.0277778
        k(   11) = (  -0.2500000   0.4166667  -0.2500000), wk =   0.0277778
        k(   12) = (  -0.3333333   0.5000000  -0.3333333), wk =   0.0277778
        k(   13) = (   0.5833333  -0.4166667   0.5833333), wk =   0.0277778
        k(   14) = (   0.5000000  -0.3333333   0.5000000), wk =   0.0277778
        k(   15) = (   0.4166667  -0.2500000   0.4166667), wk =   0.0277778
        k(   16) = (   0.3333333  -0.1666667   0.3333333), wk =   0.0277778
        k(   17) = (   0.2500000  -0.0833333   0.2500000), wk =   0.0277778
        k(   18) = (   0.1666667  -0.0000000   0.1666667), wk =   0.0138889
        k(   19) = (   0.0000000   0.3333333   0.0000000), wk =   0.0069444
        k(   20) = (  -0.0833333   0.4166667  -0.0833333), wk =   0.0277778
        k(   21) = (  -0.1666667   0.5000000  -0.1666667), wk =   0.0277778
        k(   22) = (  -0.2500000   0.5833333  -0.2500000), wk =   0.0277778
        k(   23) = (   0.6666667  -0.3333333   0.6666667), wk =   0.0277778
        k(   24) = (   0.5833333  -0.2500000   0.5833333), wk =   0.0277778
        k(   25) = (   0.5000000  -0.1666667   0.5000000), wk =   0.0277778
        k(   26) = (   0.4166667  -0.0833333   0.4166667), wk =   0.0277778
        k(   27) = (   0.3333333   0.0000000   0.3333333), wk =   0.0138889
        k(   28) = (   0.0000000   0.5000000   0.0000000), wk =   0.0069444
        k(   29) = (  -0.0833333   0.5833333  -0.0833333), wk =   0.0277778
        k(   30) = (  -0.1666667   0.6666667  -0.1666667), wk =   0.0277778
        k(   31) = (   0.7500000  -0.2500000   0.7500000), wk =   0.0277778
        k(   32) = (   0.6666667  -0.1666667   0.6666667), wk =   0.0277778
        k(   33) = (   0.5833333  -0.0833333   0.5833333), wk =   0.0277778
        k(   34) = (   0.5000000   0.0000000   0.5000000), wk =   0.0138889
        k(   35) = (   0.0000000   0.6666667   0.0000000), wk =   0.0069444
        k(   36) = (  -0.0833333   0.7500000  -0.0833333), wk =   0.0277778
        k(   37) = (   0.8333333  -0.1666667   0.8333333), wk =   0.0277778
        k(   38) = (   0.7500000  -0.0833333   0.7500000), wk =   0.0277778
        k(   39) = (   0.6666667  -0.0000000   0.6666667), wk =   0.0138889
        k(   40) = (   0.0000000   0.8333333   0.0000000), wk =   0.0069444
        k(   41) = (   0.9166667  -0.0833333   0.9166667), wk =   0.0277778
        k(   42) = (   0.8333333   0.0000000   0.8333333), wk =   0.0138889
        k(   43) = (   0.0000000  -1.0000000   0.0000000), wk =   0.0034722
        k(   44) = (  -0.1666667   0.3333333   0.0000000), wk =   0.0277778
        k(   45) = (  -0.2500000   0.4166667  -0.0833333), wk =   0.0555556
        k(   46) = (  -0.3333333   0.5000000  -0.1666667), wk =   0.0555556
        k(   47) = (   0.5833333  -0.4166667   0.7500000), wk =   0.0555556
        k(   48) = (   0.5000000  -0.3333333   0.6666667), wk =   0.0277778
        k(   49) = (  -0.1666667   0.5000000   0.0000000), wk =   0.0277778
        k(   50) = (  -0.2500000   0.5833333  -0.0833333), wk =   0.0555556
        k(   51) = (   0.6666667  -0.3333333   0.8333333), wk =   0.0555556
        k(   52) = (   0.5833333  -0.2500000   0.7500000), wk =   0.0555556
        k(   53) = (   0.5000000  -0.1666667   0.6666667), wk =   0.0555556
        k(   54) = (   0.4166667  -0.0833333   0.5833333), wk =   0.0555556
        k(   55) = (   0.3333333   0.0000000   0.5000000), wk =   0.0277778
        k(   56) = (  -0.1666667   0.6666667  -0.0000000), wk =   0.0277778
        k(   57) = (   0.7500000  -0.2500000   0.9166667), wk =   0.0555556
        k(   58) = (   0.6666667  -0.1666667   0.8333333), wk =   0.0555556
        k(   59) = (   0.5833333  -0.0833333   0.7500000), wk =   0.0555556
        k(   60) = (   0.5000000   0.0000000   0.6666667), wk =   0.0277778
        k(   61) = (   0.8333333  -0.1666667   1.0000000), wk =   0.0277778
        k(   62) = (   0.7500000  -0.0833333   0.9166667), wk =   0.0555556
        k(   63) = (   0.6666667   0.0000000   0.8333333), wk =   0.0277778
        k(   64) = (  -0.1666667  -1.0000000  -0.0000000), wk =   0.0138889
        k(   65) = (   0.6666667  -0.3333333   1.0000000), wk =   0.0277778
        k(   66) = (   0.5833333  -0.2500000   0.9166667), wk =   0.0555556
        k(   67) = (   0.5000000  -0.1666667   0.8333333), wk =   0.0277778
        k(   68) = (   0.6666667  -0.1666667   1.0000000), wk =   0.0277778
        k(   69) = (   0.5833333  -0.0833333   0.9166667), wk =   0.0555556
        k(   70) = (   0.5000000   0.0000000   0.8333333), wk =   0.0277778
        k(   71) = (  -0.3333333  -1.0000000   0.0000000), wk =   0.0138889
        k(   72) = (  -0.5000000  -1.0000000   0.0000000), wk =   0.0069444

     PseudoPot. # 1 for Pb read from file:
     /home/elena/qe-6.7/pseudo/Pb.pbe-dn-rrkjus_psl.1.0.0.UPF
     MD5 check sum: 1cf8f5e18580e6a90a35f98a53d336de
     Pseudo is Ultrasoft + core correction, Zval = 14.0
     Generated using &quot;atomic&quot; code by A. Dal Corso  v.6.3
     Using radial grid of 1281 points,  6 beta functions with: 
                l(1) =   0
                l(2) =   0
                l(3) =   1
                l(4) =   1
                l(5) =   2
                l(6) =   2
     Q(r) pseudized with 0 coefficients 


     Mode symmetry, O_h (m-3m)  point group:


     Atomic displacements:
     There are    1 irreducible representations

     Representation     1      3 modes -  To be done



     Alpha used in Ewald sum =   2.8000
     PHONON       :      6.44s CPU      6.58s WALL



     Representation #   1 modes #   1   2   3

     Self-consistent Calculation

     Pert. #  1: Fermi energy shift (Ry) =    -2.7573E-25    -1.6653E-38
     Pert. #  2: Fermi energy shift (Ry) =     1.2063E-25     6.2693E-38
     Pert. #  3: Fermi energy shift (Ry) =    -3.4466E-25     0.0000E+00

      iter #   1 total cpu time :    31.2 secs   av.it.:   8.7
      thresh= 1.000E-02 alpha_mix =  0.700 |ddv_scf|^2 =  1.035E-06

     Pert. #  1: Fermi energy shift (Ry) =    -2.7573E-25     0.0000E+00
     Pert. #  2: Fermi energy shift (Ry) =     2.4126E-25     0.0000E+00
     Pert. #  3: Fermi energy shift (Ry) =     4.1359E-25     0.0000E+00

      iter #   2 total cpu time :    62.2 secs   av.it.:  14.3
      thresh= 1.017E-04 alpha_mix =  0.700 |ddv_scf|^2 =  9.239E-08

     Pert. #  1: Fermi energy shift (Ry) =     0.0000E+00     0.0000E+00
     Pert. #  2: Fermi energy shift (Ry) =     3.7912E-25     0.0000E+00
     Pert. #  3: Fermi energy shift (Ry) =     6.8932E-26     0.0000E+00

      iter #   3 total cpu time :    93.7 secs   av.it.:  14.0
      thresh= 3.040E-05 alpha_mix =  0.700 |ddv_scf|^2 =  4.446E-11

     Pert. #  1: Fermi energy shift (Ry) =    -1.3786E-25    -4.3048E-42
     Pert. #  2: Fermi energy shift (Ry) =     6.0315E-25     0.0000E+00
     Pert. #  3: Fermi energy shift (Ry) =     2.0680E-25     0.0000E+00

      iter #   4 total cpu time :   127.5 secs   av.it.:  14.0
      thresh= 6.668E-07 alpha_mix =  0.700 |ddv_scf|^2 =  6.367E-13

     End of self-consistent calculation

     Convergence has been achieved 

     Number of q in the star =    1
     List of q in the star:
          1   0.000000000   0.000000000   0.000000000

     Diagonalizing the dynamical matrix

     q = (    0.000000000   0.000000000   0.000000000 ) 

 **************************************************************************
     freq (    1) =       0.560373 [THz] =      18.692019 [cm-1]
     freq (    2) =       0.560373 [THz] =      18.692019 [cm-1]
     freq (    3) =       0.560373 [THz] =      18.692019 [cm-1]
 **************************************************************************

     Mode symmetry, O_h (m-3m)  point group:

     freq (   1-   3) =         18.7  [cm-1]   --> T_1u G_15  G_4- I  

     PHONON       :   2m 6.94s CPU   2m 8.31s WALL

     INITIALIZATION: 
     phq_setup    :      0.16s CPU      0.19s WALL (       1 calls)
     phq_init     :      5.38s CPU      5.41s WALL (       1 calls)

     phq_init     :      5.38s CPU      5.41s WALL (       1 calls)
     set_drhoc    :      1.48s CPU      1.49s WALL (       3 calls)
     init_vloc    :      0.00s CPU      0.00s WALL (       1 calls)
     init_us_1    :      0.44s CPU      0.44s WALL (       1 calls)
     newd         :      0.10s CPU      0.15s WALL (       1 calls)
     dvanqq       :      0.86s CPU      0.86s WALL (       1 calls)
     drho         :      1.97s CPU      1.97s WALL (       1 calls)

     DYNAMICAL MATRIX:
     dynmat0      :      1.25s CPU      1.26s WALL (       1 calls)
     phqscf       :    120.50s CPU    121.71s WALL (       1 calls)
     dynmatrix    :      0.00s CPU      0.00s WALL (       1 calls)

     phqscf       :    120.50s CPU    121.71s WALL (       1 calls)
     solve_linter :    119.97s CPU    121.16s WALL (       1 calls)
     drhodv       :      0.52s CPU      0.54s WALL (       1 calls)

     dynmat0      :      1.25s CPU      1.26s WALL (       1 calls)
     dynmat_us    :      0.31s CPU      0.32s WALL (       1 calls)
     d2ionq       :      0.00s CPU      0.00s WALL (       1 calls)
     dynmatcc     :      0.93s CPU      0.93s WALL (       1 calls)

     dynmat_us    :      0.31s CPU      0.32s WALL (       1 calls)
     addusdynmat  :      0.00s CPU      0.00s WALL (       1 calls)

     phqscf       :    120.50s CPU    121.71s WALL (       1 calls)
     solve_linter :    119.97s CPU    121.16s WALL (       1 calls)

     solve_linter :    119.97s CPU    121.16s WALL (       1 calls)
     dvqpsi_us    :      2.96s CPU      2.99s WALL (     216 calls)
     ortho        :      1.19s CPU      1.21s WALL (     864 calls)
     cgsolve      :     99.03s CPU     99.75s WALL (     864 calls)
     incdrhoscf   :      6.87s CPU      7.02s WALL (     864 calls)
     addusddens   :      0.72s CPU      0.73s WALL (       5 calls)
     vpsifft      :      4.30s CPU      4.40s WALL (     648 calls)
     dv_of_drho   :      0.44s CPU      0.45s WALL (      12 calls)
     mix_pot      :      0.04s CPU      0.08s WALL (       4 calls)
     ef_shift     :      0.06s CPU      0.08s WALL (       5 calls)
     localdos     :      0.65s CPU      0.66s WALL (       1 calls)
     symdvscf     :      1.69s CPU      1.69s WALL (       4 calls)
     newdq        :      1.17s CPU      1.19s WALL (       4 calls)
     adddvscf     :      0.34s CPU      0.34s WALL (     648 calls)
     drhodvus     :      0.00s CPU      0.01s WALL (       1 calls)

     dvqpsi_us    :      2.96s CPU      2.99s WALL (     216 calls)
     dvqpsi_us_on :      0.48s CPU      0.48s WALL (     216 calls)

     cgsolve      :     99.03s CPU     99.75s WALL (     864 calls)
     ch_psi       :     96.52s CPU     97.22s WALL (   13351 calls)

     ch_psi       :     96.52s CPU     97.22s WALL (   13351 calls)
     h_psi        :     82.48s CPU     83.10s WALL (   13351 calls)
     last         :     10.52s CPU     10.59s WALL (   13351 calls)

     h_psi        :     82.48s CPU     83.10s WALL (   13351 calls)
     add_vuspsi   :      3.11s CPU      3.14s WALL (   13351 calls)

     incdrhoscf   :      6.87s CPU      7.02s WALL (     864 calls)
     addusdbec    :      0.60s CPU      0.60s WALL (    1080 calls)

     drhodvus     :      0.00s CPU      0.01s WALL (       1 calls)

      General routines
     calbec       :      9.70s CPU      9.79s WALL (   30302 calls)
     fft          :      0.55s CPU      0.56s WALL (     286 calls)
     ffts         :      0.61s CPU      0.61s WALL (     762 calls)
     fftw         :     79.09s CPU     79.85s WALL (  190819 calls)
     davcio       :      0.33s CPU      0.40s WALL (    3781 calls)
     write_rec    :      0.00s CPU      0.03s WALL (       5 calls)


     PHONON       :   2m 6.94s CPU   2m 8.31s WALL


   This run was terminated on:  11:30:24   2Jul2021            

=------------------------------------------------------------------------------=
   JOB DONE.
=------------------------------------------------------------------------------=
