
     Program PWSCF v.6.7MaX starts on  2Jul2021 at 11:22:38 

     This program is part of the open-source Quantum ESPRESSO suite
     for quantum simulation of materials; please cite
         "P. Giannozzi et al., J. Phys.:Condens. Matter 21 395502 (2009);
         "P. Giannozzi et al., J. Phys.:Condens. Matter 29 465901 (2017);
          URL http://www.quantum-espresso.org", 
     in publications or presentations arising from this work. More details at
     http://www.quantum-espresso.org/quote

     Serial version
     Waiting for input...
     Reading input from standard input

     Current dimensions of program PWSCF are:
     Max number of different atomic species (ntypx) = 10
     Max number of k-points (npk) =  40000
     Max angular momentum in pseudopotentials (lmaxx) =  3
     file Pb.pbe-dn-rrkjus_psl.1.0.0.UPF: wavefunction(s)  6S 5D renormalized

     G-vector sticks info
     --------------------
     sticks:   dense  smooth     PW     G-vecs:    dense   smooth      PW
     Sum        1639     823    253                43895    15593    2685


     Title: 
     Lead                                                                       


     bravais-lattice index     =            2
     lattice parameter (alat)  =       9.2226  a.u.
     unit-cell volume          =     196.1075 (a.u.)^3
     number of atoms/cell      =            1
     number of atomic types    =            1
     number of electrons       =        14.00
     number of Kohn-Sham states=           11
     kinetic-energy cutoff     =      70.0000  Ry
     charge density cutoff     =     560.0000  Ry
     scf convergence threshold =      1.0E-09
     mixing beta               =       0.7000
     number of iterations used =            8  plain     mixing
     Exchange-correlation= PBE
                           (   1   4   3   4   0   0   0)

     celldm(1)=   9.222558  celldm(2)=   0.000000  celldm(3)=   0.000000
     celldm(4)=   0.000000  celldm(5)=   0.000000  celldm(6)=   0.000000

     crystal axes: (cart. coord. in units of alat)
               a(1) = (  -0.500000   0.000000   0.500000 )  
               a(2) = (   0.000000   0.500000   0.500000 )  
               a(3) = (  -0.500000   0.500000   0.000000 )  

     reciprocal axes: (cart. coord. in units 2 pi/alat)
               b(1) = ( -1.000000 -1.000000  1.000000 )  
               b(2) = (  1.000000  1.000000  1.000000 )  
               b(3) = ( -1.000000  1.000000 -1.000000 )  


     PseudoPot. # 1 for Pb read from file:
     /home/elena/qe-6.7/pseudo/Pb.pbe-dn-rrkjus_psl.1.0.0.UPF
     MD5 check sum: 1cf8f5e18580e6a90a35f98a53d336de
     Pseudo is Ultrasoft + core correction, Zval = 14.0
     Generated using &quot;atomic&quot; code by A. Dal Corso  v.6.3
     Using radial grid of 1281 points,  6 beta functions with: 
                l(1) =   0
                l(2) =   0
                l(3) =   1
                l(4) =   1
                l(5) =   2
                l(6) =   2
     Q(r) pseudized with 0 coefficients 


     atomic species   valence    mass     pseudopotential
        Pb            14.00   207.20000     Pb( 1.00)

     48 Sym. Ops., with inversion, found



   Cartesian axes

     site n.     atom                  positions (alat units)
         1           Pb  tau(   1) = (   0.0000000   0.0000000   0.0000000  )

     number of k points=    72  Methfessel-Paxton smearing, width (Ry)=  0.0400
                       cart. coord. in units 2pi/alat
        k(    1) = (   0.0000000   0.0000000   0.0000000), wk =   0.0011574
        k(    2) = (  -0.0833333   0.0833333  -0.0833333), wk =   0.0092593
        k(    3) = (  -0.1666667   0.1666667  -0.1666667), wk =   0.0092593
        k(    4) = (  -0.2500000   0.2500000  -0.2500000), wk =   0.0092593
        k(    5) = (  -0.3333333   0.3333333  -0.3333333), wk =   0.0092593
        k(    6) = (  -0.4166667   0.4166667  -0.4166667), wk =   0.0092593
        k(    7) = (   0.5000000  -0.5000000   0.5000000), wk =   0.0046296
        k(    8) = (   0.0000000   0.1666667   0.0000000), wk =   0.0069444
        k(    9) = (  -0.0833333   0.2500000  -0.0833333), wk =   0.0277778
        k(   10) = (  -0.1666667   0.3333333  -0.1666667), wk =   0.0277778
        k(   11) = (  -0.2500000   0.4166667  -0.2500000), wk =   0.0277778
        k(   12) = (  -0.3333333   0.5000000  -0.3333333), wk =   0.0277778
        k(   13) = (   0.5833333  -0.4166667   0.5833333), wk =   0.0277778
        k(   14) = (   0.5000000  -0.3333333   0.5000000), wk =   0.0277778
        k(   15) = (   0.4166667  -0.2500000   0.4166667), wk =   0.0277778
        k(   16) = (   0.3333333  -0.1666667   0.3333333), wk =   0.0277778
        k(   17) = (   0.2500000  -0.0833333   0.2500000), wk =   0.0277778
        k(   18) = (   0.1666667  -0.0000000   0.1666667), wk =   0.0138889
        k(   19) = (   0.0000000   0.3333333   0.0000000), wk =   0.0069444
        k(   20) = (  -0.0833333   0.4166667  -0.0833333), wk =   0.0277778
        k(   21) = (  -0.1666667   0.5000000  -0.1666667), wk =   0.0277778
        k(   22) = (  -0.2500000   0.5833333  -0.2500000), wk =   0.0277778
        k(   23) = (   0.6666667  -0.3333333   0.6666667), wk =   0.0277778
        k(   24) = (   0.5833333  -0.2500000   0.5833333), wk =   0.0277778
        k(   25) = (   0.5000000  -0.1666667   0.5000000), wk =   0.0277778
        k(   26) = (   0.4166667  -0.0833333   0.4166667), wk =   0.0277778
        k(   27) = (   0.3333333   0.0000000   0.3333333), wk =   0.0138889
        k(   28) = (   0.0000000   0.5000000   0.0000000), wk =   0.0069444
        k(   29) = (  -0.0833333   0.5833333  -0.0833333), wk =   0.0277778
        k(   30) = (  -0.1666667   0.6666667  -0.1666667), wk =   0.0277778
        k(   31) = (   0.7500000  -0.2500000   0.7500000), wk =   0.0277778
        k(   32) = (   0.6666667  -0.1666667   0.6666667), wk =   0.0277778
        k(   33) = (   0.5833333  -0.0833333   0.5833333), wk =   0.0277778
        k(   34) = (   0.5000000   0.0000000   0.5000000), wk =   0.0138889
        k(   35) = (   0.0000000   0.6666667   0.0000000), wk =   0.0069444
        k(   36) = (  -0.0833333   0.7500000  -0.0833333), wk =   0.0277778
        k(   37) = (   0.8333333  -0.1666667   0.8333333), wk =   0.0277778
        k(   38) = (   0.7500000  -0.0833333   0.7500000), wk =   0.0277778
        k(   39) = (   0.6666667  -0.0000000   0.6666667), wk =   0.0138889
        k(   40) = (   0.0000000   0.8333333   0.0000000), wk =   0.0069444
        k(   41) = (   0.9166667  -0.0833333   0.9166667), wk =   0.0277778
        k(   42) = (   0.8333333   0.0000000   0.8333333), wk =   0.0138889
        k(   43) = (   0.0000000  -1.0000000   0.0000000), wk =   0.0034722
        k(   44) = (  -0.1666667   0.3333333   0.0000000), wk =   0.0277778
        k(   45) = (  -0.2500000   0.4166667  -0.0833333), wk =   0.0555556
        k(   46) = (  -0.3333333   0.5000000  -0.1666667), wk =   0.0555556
        k(   47) = (   0.5833333  -0.4166667   0.7500000), wk =   0.0555556
        k(   48) = (   0.5000000  -0.3333333   0.6666667), wk =   0.0277778
        k(   49) = (  -0.1666667   0.5000000   0.0000000), wk =   0.0277778
        k(   50) = (  -0.2500000   0.5833333  -0.0833333), wk =   0.0555556
        k(   51) = (   0.6666667  -0.3333333   0.8333333), wk =   0.0555556
        k(   52) = (   0.5833333  -0.2500000   0.7500000), wk =   0.0555556
        k(   53) = (   0.5000000  -0.1666667   0.6666667), wk =   0.0555556
        k(   54) = (   0.4166667  -0.0833333   0.5833333), wk =   0.0555556
        k(   55) = (   0.3333333   0.0000000   0.5000000), wk =   0.0277778
        k(   56) = (  -0.1666667   0.6666667  -0.0000000), wk =   0.0277778
        k(   57) = (   0.7500000  -0.2500000   0.9166667), wk =   0.0555556
        k(   58) = (   0.6666667  -0.1666667   0.8333333), wk =   0.0555556
        k(   59) = (   0.5833333  -0.0833333   0.7500000), wk =   0.0555556
        k(   60) = (   0.5000000   0.0000000   0.6666667), wk =   0.0277778
        k(   61) = (   0.8333333  -0.1666667   1.0000000), wk =   0.0277778
        k(   62) = (   0.7500000  -0.0833333   0.9166667), wk =   0.0555556
        k(   63) = (   0.6666667   0.0000000   0.8333333), wk =   0.0277778
        k(   64) = (  -0.1666667  -1.0000000  -0.0000000), wk =   0.0138889
        k(   65) = (   0.6666667  -0.3333333   1.0000000), wk =   0.0277778
        k(   66) = (   0.5833333  -0.2500000   0.9166667), wk =   0.0555556
        k(   67) = (   0.5000000  -0.1666667   0.8333333), wk =   0.0277778
        k(   68) = (   0.6666667  -0.1666667   1.0000000), wk =   0.0277778
        k(   69) = (   0.5833333  -0.0833333   0.9166667), wk =   0.0555556
        k(   70) = (   0.5000000   0.0000000   0.8333333), wk =   0.0277778
        k(   71) = (  -0.3333333  -1.0000000   0.0000000), wk =   0.0138889
        k(   72) = (  -0.5000000  -1.0000000   0.0000000), wk =   0.0069444

     Dense  grid:    43895 G-vectors     FFT dimensions: (  50,  50,  50)

     Smooth grid:    15593 G-vectors     FFT dimensions: (  36,  36,  36)

     Estimated max dynamical RAM per process >     178.07 MB

     Initial potential from superposition of free atoms

     starting charge   13.99765, renormalised to   14.00000
     Starting wfcs are    9 randomized atomic wfcs +    2 random wfcs

     total cpu time spent up to now is        1.7 secs

     Self-consistent Calculation

     iteration #  1     ecut=    70.00 Ry     beta= 0.70
     Davidson diagonalization with overlap
     ethr =  1.00E-02,  avg # of iterations =  4.4

     Threshold (ethr) on eigenvalues was too large:
     Diagonalizing with lowered threshold

     Davidson diagonalization with overlap
     c_bands:  1 eigenvalues not converged
     ethr =  1.62E-05,  avg # of iterations =  6.8

     total cpu time spent up to now is        8.9 secs

     total energy              =    -135.43449843 Ry
     estimated scf accuracy    <       0.00229971 Ry

     iteration #  2     ecut=    70.00 Ry     beta= 0.70
     Davidson diagonalization with overlap
     ethr =  1.64E-05,  avg # of iterations =  2.2

     total cpu time spent up to now is       12.3 secs

     total energy              =    -135.43498661 Ry
     estimated scf accuracy    <       0.00018233 Ry

     iteration #  3     ecut=    70.00 Ry     beta= 0.70
     Davidson diagonalization with overlap
     ethr =  1.30E-06,  avg # of iterations =  2.5

     total cpu time spent up to now is       15.5 secs

     total energy              =    -135.43501530 Ry
     estimated scf accuracy    <       0.00000764 Ry

     iteration #  4     ecut=    70.00 Ry     beta= 0.70
     Davidson diagonalization with overlap
     ethr =  5.45E-08,  avg # of iterations =  2.0

     total cpu time spent up to now is       18.9 secs

     total energy              =    -135.43501615 Ry
     estimated scf accuracy    <       0.00000059 Ry

     iteration #  5     ecut=    70.00 Ry     beta= 0.70
     Davidson diagonalization with overlap
     ethr =  4.20E-09,  avg # of iterations =  2.3

     total cpu time spent up to now is       22.1 secs

     total energy              =    -135.43501635 Ry
     estimated scf accuracy    <       0.00000010 Ry

     iteration #  6     ecut=    70.00 Ry     beta= 0.70
     Davidson diagonalization with overlap
     ethr =  7.17E-10,  avg # of iterations =  1.7

     total cpu time spent up to now is       25.0 secs

     total energy              =    -135.43501636 Ry
     estimated scf accuracy    <          2.8E-09 Ry

     iteration #  7     ecut=    70.00 Ry     beta= 0.70
     Davidson diagonalization with overlap
     ethr =  2.02E-11,  avg # of iterations =  2.6

     total cpu time spent up to now is       28.4 secs

     End of self-consistent calculation

          k = 0.0000 0.0000 0.0000 (  1917 PWs)   bands (ev):

    -5.2268  -5.2268  -5.2268  -5.0677  -5.0677  -0.1795  19.6457  19.6457
    19.6457  21.9785  23.7542

          k =-0.0833 0.0833-0.0833 (  1947 PWs)   bands (ev):

    -5.2275  -5.2158  -5.2158  -5.0687  -5.0687  -0.0398  18.0470  19.4669
    19.4669  21.6805  24.3744

          k =-0.1667 0.1667-0.1667 (  1940 PWs)   bands (ev):

    -5.2310  -5.1936  -5.1936  -5.0618  -5.0618   0.3806  15.3553  19.0408
    19.0408  21.3629  24.9138

          k =-0.2500 0.2500-0.2500 (  1949 PWs)   bands (ev):

    -5.2394  -5.1869  -5.1869  -5.0283  -5.0283   1.0786  12.7015  18.5485
    18.5485  21.1658  23.7914

          k =-0.3333 0.3333-0.3333 (  1940 PWs)   bands (ev):

    -5.2516  -5.1976  -5.1976  -4.9760  -4.9760   2.0249  10.3077  18.1156
    18.1156  21.1170  22.8204

          k =-0.4167 0.4167-0.4167 (  1937 PWs)   bands (ev):

    -5.2626  -5.2102  -5.2102  -4.9325  -4.9325   3.0893   8.3608  17.8228
    17.8228  21.2215  22.1019

          k = 0.5000-0.5000 0.5000 (  1946 PWs)   bands (ev):

    -5.2672  -5.2153  -5.2153  -4.9159  -4.9159   3.7035   7.4505  17.7194
    17.7194  21.3872  21.7319

          k = 0.0000 0.1667 0.0000 (  1941 PWs)   bands (ev):

    -5.2397  -5.2050  -5.2050  -5.0811  -5.0586   0.0067  18.5539  18.8549
    18.8549  21.3729  24.5259

          k =-0.0833 0.2500-0.0833 (  1944 PWs)   bands (ev):

    -5.2473  -5.1820  -5.1795  -5.0914  -5.0462   0.3334  16.2639  18.2041
    18.7498  21.3989  23.4617

          k =-0.1667 0.3333-0.1667 (  1938 PWs)   bands (ev):

    -5.2493  -5.1744  -5.1652  -5.0763  -5.0149   0.9394  13.6230  17.6606
    18.2772  21.4480  23.0798

          k =-0.2500 0.4167-0.2500 (  1941 PWs)   bands (ev):

    -5.2522  -5.1890  -5.1716  -5.0297  -4.9670   1.8062  11.1610  17.2999
    17.6684  20.9596  23.2398

          k =-0.3333 0.5000-0.3333 (  1939 PWs)   bands (ev):

    -5.2560  -5.2061  -5.1854  -4.9778  -4.9273   2.8514   9.0594  17.0748
    17.1675  20.6442  23.0950

          k = 0.5833-0.4167 0.5833 (  1941 PWs)   bands (ev):

    -5.2565  -5.2160  -5.1954  -4.9410  -4.9147   3.7166   7.7102  16.6086
    17.2886  20.6192  22.7881

          k = 0.5000-0.3333 0.5000 (  1939 PWs)   bands (ev):

    -5.2519  -5.2147  -5.1961  -4.9359  -4.9314   3.4976   8.0281  16.3467
    17.6623  20.8659  22.5353

          k = 0.4167-0.2500 0.4167 (  1936 PWs)   bands (ev):

    -5.2444  -5.2029  -5.1870  -4.9847  -4.9506   2.4934   9.7111  16.3241
    18.2487  21.3388  22.4535

          k = 0.3333-0.1667 0.3333 (  1938 PWs)   bands (ev):

    -5.2379  -5.1875  -5.1742  -5.0442  -4.9895   1.4906  11.9517  16.5471
    18.9456  21.8380  22.7332

          k = 0.2500-0.0833 0.2500 (  1942 PWs)   bands (ev):

    -5.2345  -5.1812  -5.1764  -5.0824  -5.0300   0.7069  14.4659  17.0210
    19.5519  22.0196  23.6063

          k = 0.1667-0.0000 0.1667 (  1945 PWs)   bands (ev):

    -5.2323  -5.2017  -5.1943  -5.0810  -5.0554   0.1935  16.8475  17.9309
    19.7728  21.8618  24.8635

          k = 0.0000 0.3333 0.0000 (  1960 PWs)   bands (ev):

    -5.2744  -5.1442  -5.1442  -5.1205  -5.0334   0.5663  16.5963  17.3920
    17.3920  20.4344  21.9272

          k =-0.0833 0.4167-0.0833 (  1955 PWs)   bands (ev):

    -5.2873  -5.1523  -5.1155  -5.0990  -5.0070   1.0781  14.5128  16.7480
    16.9951  20.4399  21.1902

          k =-0.1667 0.5000-0.1667 (  1943 PWs)   bands (ev):

    -5.2854  -5.1745  -5.1145  -5.0611  -4.9610   1.8552  12.1382  16.2417
    16.3400  19.9400  22.4294

          k =-0.2500 0.5833-0.2500 (  1943 PWs)   bands (ev):

    -5.2780  -5.1848  -5.1274  -5.0280  -4.9221   2.8394  10.0015  15.4025
    16.2077  19.6447  24.1947

          k = 0.6667-0.3333 0.6667 (  1942 PWs)   bands (ev):

    -5.2683  -5.1870  -5.1406  -4.9989  -4.9115   3.8015   8.4141  14.6905
    16.3721  19.6444  24.6602

          k = 0.5833-0.2500 0.5833 (  1948 PWs)   bands (ev):

    -5.2528  -5.1898  -5.1473  -4.9774  -4.9358   3.9949   8.1449  14.2075
    16.8325  19.9120  24.2248

          k = 0.5000-0.1667 0.5000 (  1943 PWs)   bands (ev):

    -5.2309  -5.1972  -5.1441  -4.9894  -4.9692   3.1714   9.4352  14.0107
    17.5560  20.4394  23.9022

          k = 0.4167-0.0833 0.4167 (  1939 PWs)   bands (ev):

    -5.2157  -5.2011  -5.1317  -5.0572  -4.9770   2.1587  11.3986  14.1640
    18.4509  21.2288  23.6401

          k = 0.3333 0.0000 0.3333 (  1935 PWs)   bands (ev):

    -5.2275  -5.1848  -5.1339  -5.1008  -4.9989   1.3077  13.3393  14.9747
    19.2813  22.2759  23.0790

          k = 0.0000 0.5000 0.0000 (  1964 PWs)   bands (ev):

    -5.3216  -5.1808  -5.0583  -5.0583  -4.9985   1.4946  14.3586  16.0022
    16.0022  19.6545  19.7178

          k =-0.0833 0.5833-0.0833 (  1945 PWs)   bands (ev):

    -5.3335  -5.2083  -5.0401  -5.0202  -4.9601   2.1771  12.7175  15.1377
    15.5068  19.1214  20.1627

          k =-0.1667 0.6667-0.1667 (  1936 PWs)   bands (ev):

    -5.3238  -5.2145  -5.0503  -5.0047  -4.9183   3.0784  10.8742  13.9733
    15.3069  18.8770  21.7946

          k = 0.7500-0.2500 0.7500 (  1941 PWs)   bands (ev):

    -5.3062  -5.1887  -5.0650  -5.0129  -4.9065   4.0342   9.3304  12.9543
    15.4245  18.8847  23.8992

          k = 0.6667-0.1667 0.6667 (  1944 PWs)   bands (ev):

    -5.2854  -5.1453  -5.0771  -5.0332  -4.9309   4.5068   8.7141  12.2242
    15.8585  19.1240  26.1456

          k = 0.5833-0.0833 0.5833 (  1941 PWs)   bands (ev):

    -5.2587  -5.1365  -5.0835  -5.0279  -4.9843   3.9760   9.5278  11.8781
    16.5784  19.5938  25.8267

          k = 0.5000 0.0000 0.5000 (  1947 PWs)   bands (ev):

    -5.2290  -5.1738  -5.0895  -5.0446  -4.9945   3.0354  10.7953  12.3178
    17.5063  20.2988  25.1438

          k = 0.0000 0.6667 0.0000 (  1948 PWs)   bands (ev):

    -5.3684  -5.2468  -4.9693  -4.9693  -4.9635   2.7616  11.9487  14.9148
    14.9148  18.3325  19.1000

          k =-0.0833 0.7500-0.0833 (  1943 PWs)   bands (ev):

    -5.3735  -5.2662  -4.9759  -4.9439  -4.9157   3.5646  10.6965  13.8356
    14.6218  18.2495  19.6336

          k = 0.8333-0.1667 0.8333 (  1941 PWs)   bands (ev):

    -5.3528  -5.2529  -4.9900  -4.9537  -4.8992   4.4414   9.6626  12.3019
    14.6558  18.3272  21.3847

          k = 0.7500-0.0833 0.7500 (  1927 PWs)   bands (ev):

    -5.3243  -5.1965  -5.0070  -4.9962  -4.9190   4.9787   9.3327  10.9809
    15.0185  18.5471  23.6420

          k = 0.6667-0.0000 0.6667 (  1935 PWs)   bands (ev):

    -5.2927  -5.1143  -5.0601  -5.0329  -4.9589   4.7195   9.9768  10.2394
    15.6821  18.9633  26.1524

          k = 0.0000 0.8333 0.0000 (  1956 PWs)   bands (ev):

    -5.4025  -5.2983  -4.9378  -4.9021  -4.9021   4.2459   9.6798  14.2280
    14.2280  17.6098  18.7724

          k = 0.9167-0.0833 0.9167 (  1948 PWs)   bands (ev):

    -5.3964  -5.3016  -4.9413  -4.8982  -4.8867   4.9425   8.8947  13.2331
    14.1628  17.8492  19.3816

          k = 0.8333 0.0000 0.8333 (  1938 PWs)   bands (ev):

    -5.3637  -5.2678  -4.9612  -4.9338  -4.8986   5.2376   8.8975  11.7472
    14.4337  18.1560  21.2465

          k = 0.0000-1.0000 0.0000 (  1964 PWs)   bands (ev):

    -5.4150  -5.3175  -4.9284  -4.8772  -4.8772   5.2187   8.4300  13.9934
    13.9934  17.3870  18.6643

          k =-0.1667 0.3333 0.0000 (  1950 PWs)   bands (ev):

    -5.2566  -5.1651  -5.1470  -5.1056  -5.0233   0.7531  15.0351  16.4556
    18.7781  21.5310  22.3238

          k =-0.2500 0.4167-0.0833 (  1941 PWs)   bands (ev):

    -5.2539  -5.1747  -5.1327  -5.0836  -4.9876   1.4456  12.8582  15.5624
    18.2312  21.3621  22.7274

          k =-0.3333 0.5000-0.1667 (  1938 PWs)   bands (ev):

    -5.2475  -5.1952  -5.1430  -5.0325  -4.9511   2.3756  10.6064  15.1938
    17.4375  20.9192  23.2740

          k = 0.5833-0.4167 0.7500 (  1938 PWs)   bands (ev):

    -5.2417  -5.2146  -5.1515  -4.9881  -4.9278   3.4046   8.7465  15.0722
    16.7892  20.6787  22.9966

          k = 0.5000-0.3333 0.6667 (  1952 PWs)   bands (ev):

    -5.2368  -5.2255  -5.1546  -4.9691  -4.9216   3.9824   7.8878  15.0640
    16.5298  20.6029  22.8616

          k =-0.1667 0.5000 0.0000 (  1945 PWs)   bands (ev):

    -5.2983  -5.1761  -5.0925  -5.0608  -4.9786   1.6760  13.3401  15.1198
    16.7213  20.4620  20.7791

          k =-0.2500 0.5833-0.0833 (  1939 PWs)   bands (ev):

    -5.2890  -5.1929  -5.0954  -5.0257  -4.9461   2.5186  11.5081  14.2373
    15.9590  20.2300  22.1514

          k = 0.6667-0.3333 0.8333 (  1940 PWs)   bands (ev):

    -5.2731  -5.1930  -5.0996  -5.0163  -4.9223   3.5067   9.6888  13.7286
    15.3990  20.1581  23.8999

          k = 0.5833-0.2500 0.7500 (  1942 PWs)   bands (ev):

    -5.2583  -5.1884  -5.0927  -5.0235  -4.9203   4.2761   8.5316  13.2827
    15.3563  20.3003  23.9473

          k = 0.5000-0.1667 0.6667 (  1944 PWs)   bands (ev):

    -5.2398  -5.1939  -5.0935  -5.0208  -4.9424   4.0731   8.8416  12.9732
    15.7820  20.6475  23.6395

          k = 0.4167-0.0833 0.5833 (  1941 PWs)   bands (ev):

    -5.2166  -5.2113  -5.1058  -5.0220  -4.9680   3.1569  10.3146  12.9695
    16.5377  21.1602  23.4959

          k = 0.3333 0.0000 0.5000 (  1937 PWs)   bands (ev):

    -5.2371  -5.1924  -5.1093  -5.0639  -4.9726   2.2061  11.9263  13.6514
    17.4737  21.6473  22.9637

          k =-0.1667 0.6667-0.0000 (  1944 PWs)   bands (ev):

    -5.3404  -5.2325  -5.0313  -4.9707  -4.9391   2.9234  11.5904  14.0849
    14.8028  19.3564  20.1776

          k = 0.7500-0.2500 0.9167 (  1945 PWs)   bands (ev):

    -5.3216  -5.2327  -5.0422  -4.9622  -4.9167   3.8317  10.3149  12.9059
    14.3016  19.5567  21.6414

          k = 0.6667-0.1667 0.8333 (  1929 PWs)   bands (ev):

    -5.2968  -5.1950  -5.0567  -4.9974  -4.9095   4.6348   9.3432  11.8433
    14.3596  19.7339  23.7862

          k = 0.5833-0.0833 0.7500 (  1934 PWs)   bands (ev):

    -5.2725  -5.1397  -5.0776  -5.0365  -4.9327   4.7314   9.3713  11.1476
    14.8150  20.0959  25.4096

          k = 0.5000 0.0000 0.6667 (  1940 PWs)   bands (ev):

    -5.2446  -5.1555  -5.0910  -5.0175  -4.9754   4.0436  10.1178  11.2884
    15.5757  20.6363  25.0032

          k = 0.8333-0.1667 1.0000 (  1947 PWs)   bands (ev):

    -5.3713  -5.2794  -4.9738  -4.9182  -4.9025   4.3541   9.7383  13.4317
    13.6674  18.7633  19.8120

          k = 0.7500-0.0833 0.9167 (  1936 PWs)   bands (ev):

    -5.3409  -5.2600  -4.9880  -4.9533  -4.8895   5.0359   9.2275  11.9500
    13.6514  19.2377  21.3737

          k = 0.6667 0.0000 0.8333 (  1929 PWs)   bands (ev):

    -5.3063  -5.1978  -5.0276  -5.0000  -4.9055   5.1666   9.5752  10.6272
    14.0795  19.5957  23.6745

          k =-0.1667-1.0000-0.0000 (  1940 PWs)   bands (ev):

    -5.3826  -5.2972  -4.9454  -4.9172  -4.8770   5.2463   8.6648  13.2085
    13.3168  18.5750  19.6903

          k = 0.6667-0.3333 1.0000 (  1930 PWs)   bands (ev):

    -5.2628  -5.2094  -5.0979  -4.9740  -4.9589   3.3816  10.7928  12.6344
    15.0088  21.3570  22.3796

          k = 0.5833-0.2500 0.9167 (  1933 PWs)   bands (ev):

    -5.2354  -5.2056  -5.0978  -5.0019  -4.9300   4.2821   9.7166  11.9903
    14.2414  21.5683  23.5601

          k = 0.5000-0.1667 0.8333 (  1930 PWs)   bands (ev):

    -5.2342  -5.1888  -5.0839  -5.0373  -4.9147   4.7436   9.1127  11.8839
    13.9460  21.5759  23.5928

          k = 0.6667-0.1667 1.0000 (  1946 PWs)   bands (ev):

    -5.2838  -5.2367  -5.0575  -4.9677  -4.9036   4.6336   9.8583  11.9952
    13.1335  21.0741  21.9872

          k = 0.5833-0.0833 0.9167 (  1929 PWs)   bands (ev):

    -5.2501  -5.1981  -5.0928  -5.0081  -4.8901   5.1353   9.7626  11.0085
    12.8770  21.6306  23.8502

          k = 0.5000 0.0000 0.8333 (  1932 PWs)   bands (ev):

    -5.2341  -5.1589  -5.1314  -5.0179  -4.9049   4.9547  10.0574  10.6400
    13.3383  21.9600  24.5993

          k =-0.3333-1.0000 0.0000 (  1940 PWs)   bands (ev):

    -5.2917  -5.2488  -5.0237  -4.9877  -4.8771   5.3042   9.3476  11.7770
    12.4447  20.9645  21.8539

          k =-0.5000-1.0000 0.0000 (  1912 PWs)   bands (ev):

    -5.2171  -5.1614  -5.1614  -5.0161  -4.8769   5.3347  10.4185  10.4185
    12.1091  23.0942  24.4581

     the Fermi energy is    11.9110 ev

!    total energy              =    -135.43501636 Ry
     estimated scf accuracy    <          1.2E-10 Ry
     smearing contrib. (-TS)   =      -0.00092141 Ry
     internal energy E=F+TS    =    -135.43409495 Ry

     The total energy is F=E-TS. E is the sum of the following terms:
     one-electron contribution =     -31.47686487 Ry
     hartree contribution      =      26.10686260 Ry
     xc contribution           =     -32.62551552 Ry
     ewald contribution        =     -97.43857717 Ry

     convergence has been achieved in   7 iterations

     Writing output data file /home/elena/AEP_DFT/DFT/tmp/vib/Pb.save/

     init_run     :      1.51s CPU      1.55s WALL (       1 calls)
     electrons    :     26.02s CPU     26.77s WALL (       1 calls)

     Called by init_run:
     wfcinit      :      0.91s CPU      0.91s WALL (       1 calls)
     potinit      :      0.06s CPU      0.07s WALL (       1 calls)
     hinit0       :      0.43s CPU      0.43s WALL (       1 calls)

     Called by electrons:
     c_bands      :     21.11s CPU     21.23s WALL (       8 calls)
     sum_band     :      3.98s CPU      4.37s WALL (       8 calls)
     v_of_rho     :      0.38s CPU      0.42s WALL (       8 calls)
     newd         :      0.61s CPU      0.84s WALL (       8 calls)
     mix_rho      :      0.03s CPU      0.03s WALL (       8 calls)

     Called by c_bands:
     init_us_2    :      0.52s CPU      0.52s WALL (    1224 calls)
     cegterg      :     20.30s CPU     20.41s WALL (     576 calls)

     Called by *egterg:
     cdiaghg      :      0.25s CPU      0.25s WALL (    2269 calls)
     h_psi        :     16.81s CPU     16.89s WALL (    2413 calls)
     s_psi        :      0.68s CPU      0.68s WALL (    2413 calls)
     g_psi        :      0.07s CPU      0.07s WALL (    1765 calls)

     Called by h_psi:
     h_psi:calbec :      0.80s CPU      0.81s WALL (    2413 calls)
     vloc_psi     :     15.27s CPU     15.34s WALL (    2413 calls)
     add_vuspsi   :      0.68s CPU      0.68s WALL (    2413 calls)

     General routines
     calbec       :      1.07s CPU      1.08s WALL (    2989 calls)
     fft          :      0.18s CPU      0.18s WALL (     103 calls)
     ffts         :      0.01s CPU      0.01s WALL (      16 calls)
     fftw         :     16.32s CPU     16.39s WALL (   41514 calls)
     interpolate  :      0.03s CPU      0.03s WALL (       8 calls)


     PWSCF        :     27.67s CPU     28.48s WALL


   This run was terminated on:  11:23: 7   2Jul2021            

=------------------------------------------------------------------------------=
   JOB DONE.
=------------------------------------------------------------------------------=
