
     Program PHONON v.6.7MaX starts on  2Jul2021 at 11:47:29 

     This program is part of the open-source Quantum ESPRESSO suite
     for quantum simulation of materials; please cite
         "P. Giannozzi et al., J. Phys.:Condens. Matter 21 395502 (2009);
         "P. Giannozzi et al., J. Phys.:Condens. Matter 29 465901 (2017);
          URL http://www.quantum-espresso.org", 
     in publications or presentations arising from this work. More details at
     http://www.quantum-espresso.org/quote

     Serial version
     Waiting for input...
     Reading input from standard input

     Reading xml data from directory:

     /home/elena/AEP_DFT/DFT/tmp/vib/Pb.save/
     file Pb.pbe-dn-rrkjus_psl.1.0.0.UPF: wavefunction(s)  6S 5D renormalized

     IMPORTANT: XC functional enforced from input :
     Exchange-correlation= PBE
                           (   1   4   3   4   0   0   0)
     Any further DFT definition will be discarded
     Please, verify this is what you really want


     G-vector sticks info
     --------------------
     sticks:   dense  smooth     PW     G-vecs:    dense   smooth      PW
     Sum        1639     823    253                43895    15593    2685

     Reading collected, re-writing distributed wavefunctions

     Saving dvscf to file. Distribute only q points, not irreducible represetations.

     Calculation of q =    0.0000000   0.0000000   0.0000000

     ABC                                                                        

     bravais-lattice index     =            2
     lattice parameter (alat)  =       9.2226  a.u.
     unit-cell volume          =     196.1075 (a.u.)^3
     number of atoms/cell      =            1
     number of atomic types    =            1
     kinetic-energy cut-off    =      70.0000  Ry
     charge density cut-off    =     560.0000  Ry
     convergence threshold     =      1.0E-12
     beta                      =       0.7000
     number of iterations used =            4
     Exchange-correlation= PBE
                           (   1   4   3   4   0   0   0)


     celldm(1)=    9.22256  celldm(2)=    0.00000  celldm(3)=    0.00000
     celldm(4)=    0.00000  celldm(5)=    0.00000  celldm(6)=    0.00000

     crystal axes: (cart. coord. in units of alat)
               a(1) = ( -0.5000  0.0000  0.5000 )  
               a(2) = (  0.0000  0.5000  0.5000 )  
               a(3) = ( -0.5000  0.5000  0.0000 )  

     reciprocal axes: (cart. coord. in units 2 pi/alat)
               b(1) = ( -1.0000 -1.0000  1.0000 )  
               b(2) = (  1.0000  1.0000  1.0000 )  
               b(3) = ( -1.0000  1.0000 -1.0000 )  


     Atoms inside the unit cell: 

     Cartesian axes

     site n.  atom      mass           positions (alat units)
        1     Pb 207.2000   tau(    1) = (    0.00000    0.00000    0.00000  )

     Computing dynamical matrix for 
                    q = (   0.0000000   0.0000000   0.0000000 )

     49 Sym.Ops. (with q -> -q+G )


     G cutoff = 1206.5105  (  43895 G-vectors)     FFT grid: ( 50, 50, 50)
     G cutoff =  603.2553  (  15593 G-vectors)  smooth grid: ( 36, 36, 36)

     number of k points=   104  Methfessel-Paxton smearing, width (Ry)=  0.0100

     PseudoPot. # 1 for Pb read from file:
     /home/elena/qe-6.7/pseudo/Pb.pbe-dn-rrkjus_psl.1.0.0.UPF
     MD5 check sum: 1cf8f5e18580e6a90a35f98a53d336de
     Pseudo is Ultrasoft + core correction, Zval = 14.0
     Generated using &quot;atomic&quot; code by A. Dal Corso  v.6.3
     Using radial grid of 1281 points,  6 beta functions with: 
                l(1) =   0
                l(2) =   0
                l(3) =   1
                l(4) =   1
                l(5) =   2
                l(6) =   2
     Q(r) pseudized with 0 coefficients 


     Mode symmetry, O_h (m-3m)  point group:


     Atomic displacements:
     There are    1 irreducible representations

     Representation     1      3 modes -  To be done



     Alpha used in Ewald sum =   2.8000
     PHONON       :      6.98s CPU      7.13s WALL



     Representation #   1 modes #   1   2   3

     Self-consistent Calculation

     Pert. #  1: Fermi energy shift (Ry) =     0.0000E+00    -1.6653E-38
     Pert. #  2: Fermi energy shift (Ry) =     1.3786E-25     6.2693E-38
     Pert. #  3: Fermi energy shift (Ry) =    -1.1029E-24     0.0000E+00

      iter #   1 total cpu time :    45.4 secs   av.it.:   8.9
      thresh= 1.000E-02 alpha_mix =  0.700 |ddv_scf|^2 =  1.034E-06

     Pert. #  1: Fermi energy shift (Ry) =     0.0000E+00     0.0000E+00
     Pert. #  2: Fermi energy shift (Ry) =    -3.0330E-24     0.0000E+00
     Pert. #  3: Fermi energy shift (Ry) =     9.6504E-25     0.0000E+00

      iter #   2 total cpu time :    96.3 secs   av.it.:  14.6
      thresh= 1.017E-04 alpha_mix =  0.700 |ddv_scf|^2 =  9.189E-08

     Pert. #  1: Fermi energy shift (Ry) =    -1.6544E-24     0.0000E+00
     Pert. #  2: Fermi energy shift (Ry) =     7.5825E-25     0.0000E+00
     Pert. #  3: Fermi energy shift (Ry) =     2.7573E-25     0.0000E+00

      iter #   3 total cpu time :   141.0 secs   av.it.:  14.2
      thresh= 3.031E-05 alpha_mix =  0.700 |ddv_scf|^2 =  4.462E-11

     Pert. #  1: Fermi energy shift (Ry) =     0.0000E+00     6.8877E-41
     Pert. #  2: Fermi energy shift (Ry) =     6.8932E-26     4.5918E-41
     Pert. #  3: Fermi energy shift (Ry) =     2.7573E-25    -1.5306E-41

      iter #   4 total cpu time :   183.8 secs   av.it.:  14.3
      thresh= 6.680E-07 alpha_mix =  0.700 |ddv_scf|^2 =  6.338E-13

     End of self-consistent calculation

     Convergence has been achieved 

     Number of q in the star =    1
     List of q in the star:
          1   0.000000000   0.000000000   0.000000000

     Diagonalizing the dynamical matrix

     q = (    0.000000000   0.000000000   0.000000000 ) 

 **************************************************************************
     freq (    1) =       0.576293 [THz] =      19.223056 [cm-1]
     freq (    2) =       0.576293 [THz] =      19.223056 [cm-1]
     freq (    3) =       0.576293 [THz] =      19.223056 [cm-1]
 **************************************************************************

     Mode symmetry, O_h (m-3m)  point group:

     freq (   1-   3) =         19.2  [cm-1]   --> T_1u G_15  G_4- I  

     PHONON       :   3m 2.66s CPU   3m 4.64s WALL

     INITIALIZATION: 
     phq_setup    :      0.13s CPU      0.15s WALL (       1 calls)
     phq_init     :      6.05s CPU      6.10s WALL (       1 calls)

     phq_init     :      6.05s CPU      6.10s WALL (       1 calls)
     set_drhoc    :      1.35s CPU      1.35s WALL (       3 calls)
     init_vloc    :      0.00s CPU      0.00s WALL (       1 calls)
     init_us_1    :      0.39s CPU      0.39s WALL (       1 calls)
     newd         :      0.08s CPU      0.12s WALL (       1 calls)
     dvanqq       :      0.82s CPU      0.82s WALL (       1 calls)
     drho         :      2.77s CPU      2.78s WALL (       1 calls)

     DYNAMICAL MATRIX:
     dynmat0      :      1.39s CPU      1.41s WALL (       1 calls)
     phqscf       :    175.68s CPU    177.49s WALL (       1 calls)
     dynmatrix    :      0.00s CPU      0.00s WALL (       1 calls)

     phqscf       :    175.68s CPU    177.49s WALL (       1 calls)
     solve_linter :    175.00s CPU    176.78s WALL (       1 calls)
     drhodv       :      0.68s CPU      0.70s WALL (       1 calls)

     dynmat0      :      1.39s CPU      1.41s WALL (       1 calls)
     dynmat_us    :      0.44s CPU      0.45s WALL (       1 calls)
     d2ionq       :      0.00s CPU      0.00s WALL (       1 calls)
     dynmatcc     :      0.95s CPU      0.96s WALL (       1 calls)

     dynmat_us    :      0.44s CPU      0.45s WALL (       1 calls)
     addusdynmat  :      0.00s CPU      0.00s WALL (       1 calls)

     phqscf       :    175.68s CPU    177.49s WALL (       1 calls)
     solve_linter :    175.00s CPU    176.78s WALL (       1 calls)

     solve_linter :    175.00s CPU    176.78s WALL (       1 calls)
     dvqpsi_us    :      4.65s CPU      4.68s WALL (     312 calls)
     ortho        :      1.70s CPU      1.74s WALL (    1248 calls)
     cgsolve      :    146.36s CPU    147.46s WALL (    1248 calls)
     incdrhoscf   :      9.95s CPU     10.18s WALL (    1248 calls)
     addusddens   :      0.90s CPU      0.91s WALL (       5 calls)
     vpsifft      :      6.17s CPU      6.35s WALL (     936 calls)
     dv_of_drho   :      0.43s CPU      0.45s WALL (      12 calls)
     mix_pot      :      0.03s CPU      0.08s WALL (       4 calls)
     ef_shift     :      0.05s CPU      0.10s WALL (       5 calls)
     localdos     :      0.91s CPU      0.91s WALL (       1 calls)
     symdvscf     :      1.67s CPU      1.67s WALL (       4 calls)
     newdq        :      1.06s CPU      1.06s WALL (       4 calls)
     adddvscf     :      0.48s CPU      0.49s WALL (     936 calls)
     drhodvus     :      0.00s CPU      0.00s WALL (       1 calls)

     dvqpsi_us    :      4.65s CPU      4.68s WALL (     312 calls)
     dvqpsi_us_on :      0.73s CPU      0.73s WALL (     312 calls)

     cgsolve      :    146.36s CPU    147.46s WALL (    1248 calls)
     ch_psi       :    142.63s CPU    143.70s WALL (   19690 calls)

     ch_psi       :    142.63s CPU    143.70s WALL (   19690 calls)
     h_psi        :    122.02s CPU    122.94s WALL (   19690 calls)
     last         :     15.35s CPU     15.48s WALL (   19690 calls)

     h_psi        :    122.02s CPU    122.94s WALL (   19690 calls)
     add_vuspsi   :      4.62s CPU      4.66s WALL (   19690 calls)

     incdrhoscf   :      9.95s CPU     10.18s WALL (    1248 calls)
     addusdbec    :      0.89s CPU      0.89s WALL (    1560 calls)

     drhodvus     :      0.00s CPU      0.00s WALL (       1 calls)

      General routines
     calbec       :     14.15s CPU     14.30s WALL (   44580 calls)
     fft          :      0.52s CPU      0.53s WALL (     286 calls)
     ffts         :      0.86s CPU      0.87s WALL (    1074 calls)
     fftw         :    116.73s CPU    117.89s WALL (  276029 calls)
     davcio       :      0.46s CPU      0.57s WALL (    5445 calls)
     write_rec    :      0.00s CPU      0.03s WALL (       5 calls)


     PHONON       :   3m 2.66s CPU   3m 4.64s WALL


   This run was terminated on:  11:50:33   2Jul2021            

=------------------------------------------------------------------------------=
   JOB DONE.
=------------------------------------------------------------------------------=
