
     Program PWSCF v.6.7MaX starts on  2Jul2021 at 11:25:11 

     This program is part of the open-source Quantum ESPRESSO suite
     for quantum simulation of materials; please cite
         "P. Giannozzi et al., J. Phys.:Condens. Matter 21 395502 (2009);
         "P. Giannozzi et al., J. Phys.:Condens. Matter 29 465901 (2017);
          URL http://www.quantum-espresso.org", 
     in publications or presentations arising from this work. More details at
     http://www.quantum-espresso.org/quote

     Serial version
     Waiting for input...
     Reading input from standard input

     Current dimensions of program PWSCF are:
     Max number of different atomic species (ntypx) = 10
     Max number of k-points (npk) =  40000
     Max angular momentum in pseudopotentials (lmaxx) =  3
     file Pb.pbe-dn-rrkjus_psl.1.0.0.UPF: wavefunction(s)  6S 5D renormalized

     G-vector sticks info
     --------------------
     sticks:   dense  smooth     PW     G-vecs:    dense   smooth      PW
     Sum        1639     823    253                43895    15593    2685


     Title: 
     Lead                                                                       


     bravais-lattice index     =            2
     lattice parameter (alat)  =       9.2226  a.u.
     unit-cell volume          =     196.1075 (a.u.)^3
     number of atoms/cell      =            1
     number of atomic types    =            1
     number of electrons       =        14.00
     number of Kohn-Sham states=           11
     kinetic-energy cutoff     =      70.0000  Ry
     charge density cutoff     =     560.0000  Ry
     scf convergence threshold =      1.0E-09
     mixing beta               =       0.7000
     number of iterations used =            8  plain     mixing
     Exchange-correlation= PBE
                           (   1   4   3   4   0   0   0)

     celldm(1)=   9.222558  celldm(2)=   0.000000  celldm(3)=   0.000000
     celldm(4)=   0.000000  celldm(5)=   0.000000  celldm(6)=   0.000000

     crystal axes: (cart. coord. in units of alat)
               a(1) = (  -0.500000   0.000000   0.500000 )  
               a(2) = (   0.000000   0.500000   0.500000 )  
               a(3) = (  -0.500000   0.500000   0.000000 )  

     reciprocal axes: (cart. coord. in units 2 pi/alat)
               b(1) = ( -1.000000 -1.000000  1.000000 )  
               b(2) = (  1.000000  1.000000  1.000000 )  
               b(3) = ( -1.000000  1.000000 -1.000000 )  


     PseudoPot. # 1 for Pb read from file:
     /home/elena/qe-6.7/pseudo/Pb.pbe-dn-rrkjus_psl.1.0.0.UPF
     MD5 check sum: 1cf8f5e18580e6a90a35f98a53d336de
     Pseudo is Ultrasoft + core correction, Zval = 14.0
     Generated using &quot;atomic&quot; code by A. Dal Corso  v.6.3
     Using radial grid of 1281 points,  6 beta functions with: 
                l(1) =   0
                l(2) =   0
                l(3) =   1
                l(4) =   1
                l(5) =   2
                l(6) =   2
     Q(r) pseudized with 0 coefficients 


     atomic species   valence    mass     pseudopotential
        Pb            14.00   207.20000     Pb( 1.00)

     48 Sym. Ops., with inversion, found



   Cartesian axes

     site n.     atom                  positions (alat units)
         1           Pb  tau(   1) = (   0.0000000   0.0000000   0.0000000  )

     number of k points=    72  Methfessel-Paxton smearing, width (Ry)=  0.0300
                       cart. coord. in units 2pi/alat
        k(    1) = (   0.0000000   0.0000000   0.0000000), wk =   0.0011574
        k(    2) = (  -0.0833333   0.0833333  -0.0833333), wk =   0.0092593
        k(    3) = (  -0.1666667   0.1666667  -0.1666667), wk =   0.0092593
        k(    4) = (  -0.2500000   0.2500000  -0.2500000), wk =   0.0092593
        k(    5) = (  -0.3333333   0.3333333  -0.3333333), wk =   0.0092593
        k(    6) = (  -0.4166667   0.4166667  -0.4166667), wk =   0.0092593
        k(    7) = (   0.5000000  -0.5000000   0.5000000), wk =   0.0046296
        k(    8) = (   0.0000000   0.1666667   0.0000000), wk =   0.0069444
        k(    9) = (  -0.0833333   0.2500000  -0.0833333), wk =   0.0277778
        k(   10) = (  -0.1666667   0.3333333  -0.1666667), wk =   0.0277778
        k(   11) = (  -0.2500000   0.4166667  -0.2500000), wk =   0.0277778
        k(   12) = (  -0.3333333   0.5000000  -0.3333333), wk =   0.0277778
        k(   13) = (   0.5833333  -0.4166667   0.5833333), wk =   0.0277778
        k(   14) = (   0.5000000  -0.3333333   0.5000000), wk =   0.0277778
        k(   15) = (   0.4166667  -0.2500000   0.4166667), wk =   0.0277778
        k(   16) = (   0.3333333  -0.1666667   0.3333333), wk =   0.0277778
        k(   17) = (   0.2500000  -0.0833333   0.2500000), wk =   0.0277778
        k(   18) = (   0.1666667  -0.0000000   0.1666667), wk =   0.0138889
        k(   19) = (   0.0000000   0.3333333   0.0000000), wk =   0.0069444
        k(   20) = (  -0.0833333   0.4166667  -0.0833333), wk =   0.0277778
        k(   21) = (  -0.1666667   0.5000000  -0.1666667), wk =   0.0277778
        k(   22) = (  -0.2500000   0.5833333  -0.2500000), wk =   0.0277778
        k(   23) = (   0.6666667  -0.3333333   0.6666667), wk =   0.0277778
        k(   24) = (   0.5833333  -0.2500000   0.5833333), wk =   0.0277778
        k(   25) = (   0.5000000  -0.1666667   0.5000000), wk =   0.0277778
        k(   26) = (   0.4166667  -0.0833333   0.4166667), wk =   0.0277778
        k(   27) = (   0.3333333   0.0000000   0.3333333), wk =   0.0138889
        k(   28) = (   0.0000000   0.5000000   0.0000000), wk =   0.0069444
        k(   29) = (  -0.0833333   0.5833333  -0.0833333), wk =   0.0277778
        k(   30) = (  -0.1666667   0.6666667  -0.1666667), wk =   0.0277778
        k(   31) = (   0.7500000  -0.2500000   0.7500000), wk =   0.0277778
        k(   32) = (   0.6666667  -0.1666667   0.6666667), wk =   0.0277778
        k(   33) = (   0.5833333  -0.0833333   0.5833333), wk =   0.0277778
        k(   34) = (   0.5000000   0.0000000   0.5000000), wk =   0.0138889
        k(   35) = (   0.0000000   0.6666667   0.0000000), wk =   0.0069444
        k(   36) = (  -0.0833333   0.7500000  -0.0833333), wk =   0.0277778
        k(   37) = (   0.8333333  -0.1666667   0.8333333), wk =   0.0277778
        k(   38) = (   0.7500000  -0.0833333   0.7500000), wk =   0.0277778
        k(   39) = (   0.6666667  -0.0000000   0.6666667), wk =   0.0138889
        k(   40) = (   0.0000000   0.8333333   0.0000000), wk =   0.0069444
        k(   41) = (   0.9166667  -0.0833333   0.9166667), wk =   0.0277778
        k(   42) = (   0.8333333   0.0000000   0.8333333), wk =   0.0138889
        k(   43) = (   0.0000000  -1.0000000   0.0000000), wk =   0.0034722
        k(   44) = (  -0.1666667   0.3333333   0.0000000), wk =   0.0277778
        k(   45) = (  -0.2500000   0.4166667  -0.0833333), wk =   0.0555556
        k(   46) = (  -0.3333333   0.5000000  -0.1666667), wk =   0.0555556
        k(   47) = (   0.5833333  -0.4166667   0.7500000), wk =   0.0555556
        k(   48) = (   0.5000000  -0.3333333   0.6666667), wk =   0.0277778
        k(   49) = (  -0.1666667   0.5000000   0.0000000), wk =   0.0277778
        k(   50) = (  -0.2500000   0.5833333  -0.0833333), wk =   0.0555556
        k(   51) = (   0.6666667  -0.3333333   0.8333333), wk =   0.0555556
        k(   52) = (   0.5833333  -0.2500000   0.7500000), wk =   0.0555556
        k(   53) = (   0.5000000  -0.1666667   0.6666667), wk =   0.0555556
        k(   54) = (   0.4166667  -0.0833333   0.5833333), wk =   0.0555556
        k(   55) = (   0.3333333   0.0000000   0.5000000), wk =   0.0277778
        k(   56) = (  -0.1666667   0.6666667  -0.0000000), wk =   0.0277778
        k(   57) = (   0.7500000  -0.2500000   0.9166667), wk =   0.0555556
        k(   58) = (   0.6666667  -0.1666667   0.8333333), wk =   0.0555556
        k(   59) = (   0.5833333  -0.0833333   0.7500000), wk =   0.0555556
        k(   60) = (   0.5000000   0.0000000   0.6666667), wk =   0.0277778
        k(   61) = (   0.8333333  -0.1666667   1.0000000), wk =   0.0277778
        k(   62) = (   0.7500000  -0.0833333   0.9166667), wk =   0.0555556
        k(   63) = (   0.6666667   0.0000000   0.8333333), wk =   0.0277778
        k(   64) = (  -0.1666667  -1.0000000  -0.0000000), wk =   0.0138889
        k(   65) = (   0.6666667  -0.3333333   1.0000000), wk =   0.0277778
        k(   66) = (   0.5833333  -0.2500000   0.9166667), wk =   0.0555556
        k(   67) = (   0.5000000  -0.1666667   0.8333333), wk =   0.0277778
        k(   68) = (   0.6666667  -0.1666667   1.0000000), wk =   0.0277778
        k(   69) = (   0.5833333  -0.0833333   0.9166667), wk =   0.0555556
        k(   70) = (   0.5000000   0.0000000   0.8333333), wk =   0.0277778
        k(   71) = (  -0.3333333  -1.0000000   0.0000000), wk =   0.0138889
        k(   72) = (  -0.5000000  -1.0000000   0.0000000), wk =   0.0069444

     Dense  grid:    43895 G-vectors     FFT dimensions: (  50,  50,  50)

     Smooth grid:    15593 G-vectors     FFT dimensions: (  36,  36,  36)

     Estimated max dynamical RAM per process >     178.07 MB

     Initial potential from superposition of free atoms

     starting charge   13.99765, renormalised to   14.00000
     Starting wfcs are    9 randomized atomic wfcs +    2 random wfcs

     total cpu time spent up to now is        1.7 secs

     Self-consistent Calculation

     iteration #  1     ecut=    70.00 Ry     beta= 0.70
     Davidson diagonalization with overlap
     ethr =  1.00E-02,  avg # of iterations =  4.4

     Threshold (ethr) on eigenvalues was too large:
     Diagonalizing with lowered threshold

     Davidson diagonalization with overlap
     c_bands:  1 eigenvalues not converged
     ethr =  1.61E-05,  avg # of iterations =  6.7

     total cpu time spent up to now is        8.7 secs

     total energy              =    -135.43422949 Ry
     estimated scf accuracy    <       0.00228350 Ry

     iteration #  2     ecut=    70.00 Ry     beta= 0.70
     Davidson diagonalization with overlap
     ethr =  1.63E-05,  avg # of iterations =  2.2

     total cpu time spent up to now is       11.9 secs

     total energy              =    -135.43471470 Ry
     estimated scf accuracy    <       0.00018111 Ry

     iteration #  3     ecut=    70.00 Ry     beta= 0.70
     Davidson diagonalization with overlap
     ethr =  1.29E-06,  avg # of iterations =  2.5

     total cpu time spent up to now is       15.2 secs

     total energy              =    -135.43474323 Ry
     estimated scf accuracy    <       0.00000757 Ry

     iteration #  4     ecut=    70.00 Ry     beta= 0.70
     Davidson diagonalization with overlap
     ethr =  5.41E-08,  avg # of iterations =  2.0

     total cpu time spent up to now is       18.5 secs

     total energy              =    -135.43474408 Ry
     estimated scf accuracy    <       0.00000059 Ry

     iteration #  5     ecut=    70.00 Ry     beta= 0.70
     Davidson diagonalization with overlap
     ethr =  4.18E-09,  avg # of iterations =  2.3

     total cpu time spent up to now is       21.9 secs

     total energy              =    -135.43474427 Ry
     estimated scf accuracy    <       0.00000010 Ry

     iteration #  6     ecut=    70.00 Ry     beta= 0.70
     Davidson diagonalization with overlap
     ethr =  7.00E-10,  avg # of iterations =  1.7

     total cpu time spent up to now is       24.8 secs

     total energy              =    -135.43474428 Ry
     estimated scf accuracy    <          2.6E-09 Ry

     iteration #  7     ecut=    70.00 Ry     beta= 0.70
     Davidson diagonalization with overlap
     ethr =  1.89E-11,  avg # of iterations =  2.6

     total cpu time spent up to now is       28.5 secs

     End of self-consistent calculation

          k = 0.0000 0.0000 0.0000 (  1917 PWs)   bands (ev):

    -5.2257  -5.2257  -5.2257  -5.0666  -5.0666  -0.1791  19.6461  19.6461
    19.6461  21.9787  23.7544

          k =-0.0833 0.0833-0.0833 (  1947 PWs)   bands (ev):

    -5.2263  -5.2146  -5.2146  -5.0675  -5.0675  -0.0394  18.0474  19.4673
    19.4673  21.6808  24.3746

          k =-0.1667 0.1667-0.1667 (  1940 PWs)   bands (ev):

    -5.2298  -5.1924  -5.1924  -5.0606  -5.0606   0.3810  15.3557  19.0412
    19.0412  21.3632  24.9139

          k =-0.2500 0.2500-0.2500 (  1949 PWs)   bands (ev):

    -5.2382  -5.1857  -5.1857  -5.0271  -5.0271   1.0790  12.7018  18.5488
    18.5488  21.1660  23.7916

          k =-0.3333 0.3333-0.3333 (  1940 PWs)   bands (ev):

    -5.2505  -5.1965  -5.1965  -4.9748  -4.9748   2.0253  10.3080  18.1160
    18.1160  21.1173  22.8207

          k =-0.4167 0.4167-0.4167 (  1937 PWs)   bands (ev):

    -5.2615  -5.2090  -5.2090  -4.9313  -4.9313   3.0897   8.3611  17.8231
    17.8231  21.2217  22.1022

          k = 0.5000-0.5000 0.5000 (  1946 PWs)   bands (ev):

    -5.2661  -5.2141  -5.2141  -4.9147  -4.9147   3.7040   7.4507  17.7197
    17.7197  21.3873  21.7323

          k = 0.0000 0.1667 0.0000 (  1941 PWs)   bands (ev):

    -5.2385  -5.2039  -5.2039  -5.0799  -5.0574   0.0071  18.5542  18.8552
    18.8552  21.3731  24.5261

          k =-0.0833 0.2500-0.0833 (  1944 PWs)   bands (ev):

    -5.2461  -5.1808  -5.1784  -5.0902  -5.0450   0.3338  16.2643  18.2045
    18.7502  21.3991  23.4618

          k =-0.1667 0.3333-0.1667 (  1938 PWs)   bands (ev):

    -5.2481  -5.1733  -5.1640  -5.0751  -5.0137   0.9398  13.6233  17.6610
    18.2776  21.4482  23.0800

          k =-0.2500 0.4167-0.2500 (  1941 PWs)   bands (ev):

    -5.2511  -5.1878  -5.1705  -5.0285  -4.9658   1.8066  11.1614  17.3003
    17.6688  20.9597  23.2401

          k =-0.3333 0.5000-0.3333 (  1939 PWs)   bands (ev):

    -5.2548  -5.2049  -5.1843  -4.9766  -4.9261   2.8519   9.0597  17.0752
    17.1679  20.6444  23.0954

          k = 0.5833-0.4167 0.5833 (  1941 PWs)   bands (ev):

    -5.2554  -5.2148  -5.1943  -4.9398  -4.9135   3.7171   7.7105  16.6090
    17.2889  20.6193  22.7884

          k = 0.5000-0.3333 0.5000 (  1939 PWs)   bands (ev):

    -5.2508  -5.2135  -5.1949  -4.9347  -4.9302   3.4981   8.0284  16.3471
    17.6626  20.8661  22.5357

          k = 0.4167-0.2500 0.4167 (  1936 PWs)   bands (ev):

    -5.2433  -5.2017  -5.1858  -4.9836  -4.9494   2.4938   9.7114  16.3245
    18.2490  21.3389  22.4539

          k = 0.3333-0.1667 0.3333 (  1938 PWs)   bands (ev):

    -5.2367  -5.1864  -5.1730  -5.0430  -4.9883   1.4910  11.9520  16.5475
    18.9460  21.8382  22.7335

          k = 0.2500-0.0833 0.2500 (  1942 PWs)   bands (ev):

    -5.2333  -5.1801  -5.1752  -5.0812  -5.0288   0.7073  14.4663  17.0213
    19.5523  22.0198  23.6065

          k = 0.1667-0.0000 0.1667 (  1945 PWs)   bands (ev):

    -5.2312  -5.2005  -5.1931  -5.0798  -5.0542   0.1939  16.8479  17.9312
    19.7732  21.8621  24.8639

          k = 0.0000 0.3333 0.0000 (  1960 PWs)   bands (ev):

    -5.2732  -5.1430  -5.1430  -5.1194  -5.0322   0.5667  16.5967  17.3924
    17.3924  20.4347  21.9274

          k =-0.0833 0.4167-0.0833 (  1955 PWs)   bands (ev):

    -5.2861  -5.1512  -5.1143  -5.0978  -5.0058   1.0785  14.5132  16.7483
    16.9955  20.4402  21.1904

          k =-0.1667 0.5000-0.1667 (  1943 PWs)   bands (ev):

    -5.2843  -5.1733  -5.1133  -5.0599  -4.9598   1.8556  12.1385  16.2421
    16.3403  19.9402  22.4296

          k =-0.2500 0.5833-0.2500 (  1943 PWs)   bands (ev):

    -5.2768  -5.1836  -5.1262  -5.0268  -4.9209   2.8398  10.0018  15.4029
    16.2080  19.6449  24.1950

          k = 0.6667-0.3333 0.6667 (  1942 PWs)   bands (ev):

    -5.2672  -5.1858  -5.1395  -4.9977  -4.9103   3.8020   8.4144  14.6908
    16.3724  19.6446  24.6606

          k = 0.5833-0.2500 0.5833 (  1948 PWs)   bands (ev):

    -5.2516  -5.1886  -5.1461  -4.9762  -4.9346   3.9954   8.1452  14.2079
    16.8328  19.9122  24.2252

          k = 0.5000-0.1667 0.5000 (  1943 PWs)   bands (ev):

    -5.2297  -5.1961  -5.1429  -4.9882  -4.9680   3.1719   9.4355  14.0111
    17.5564  20.4396  23.9025

          k = 0.4167-0.0833 0.4167 (  1939 PWs)   bands (ev):

    -5.2145  -5.2000  -5.1306  -5.0561  -4.9758   2.1591  11.3990  14.1643
    18.4513  21.2290  23.6404

          k = 0.3333 0.0000 0.3333 (  1935 PWs)   bands (ev):

    -5.2264  -5.1836  -5.1328  -5.0996  -4.9977   1.3081  13.3396  14.9750
    19.2817  22.2760  23.0792

          k = 0.0000 0.5000 0.0000 (  1964 PWs)   bands (ev):

    -5.3205  -5.1796  -5.0571  -5.0571  -4.9973   1.4950  14.3590  16.0025
    16.0025  19.6548  19.7179

          k =-0.0833 0.5833-0.0833 (  1945 PWs)   bands (ev):

    -5.3323  -5.2071  -5.0389  -5.0191  -4.9589   2.1775  12.7179  15.1380
    15.5071  19.1216  20.1630

          k =-0.1667 0.6667-0.1667 (  1936 PWs)   bands (ev):

    -5.3226  -5.2134  -5.0491  -5.0036  -4.9171   3.0788  10.8746  13.9737
    15.3072  18.8772  21.7949

          k = 0.7500-0.2500 0.7500 (  1941 PWs)   bands (ev):

    -5.3050  -5.1875  -5.0638  -5.0117  -4.9053   4.0347   9.3307  12.9546
    15.4248  18.8850  23.8995

          k = 0.6667-0.1667 0.6667 (  1944 PWs)   bands (ev):

    -5.2842  -5.1442  -5.0759  -5.0321  -4.9297   4.5073   8.7144  12.2245
    15.8588  19.1242  26.1459

          k = 0.5833-0.0833 0.5833 (  1941 PWs)   bands (ev):

    -5.2575  -5.1354  -5.0823  -5.0267  -4.9831   3.9764   9.5281  11.8784
    16.5788  19.5940  25.8270

          k = 0.5000 0.0000 0.5000 (  1947 PWs)   bands (ev):

    -5.2278  -5.1726  -5.0884  -5.0434  -4.9933   3.0358  10.7956  12.3182
    17.5066  20.2990  25.1441

          k = 0.0000 0.6667 0.0000 (  1948 PWs)   bands (ev):

    -5.3673  -5.2456  -4.9681  -4.9681  -4.9623   2.7621  11.9491  14.9151
    14.9151  18.3326  19.1004

          k =-0.0833 0.7500-0.0833 (  1943 PWs)   bands (ev):

    -5.3723  -5.2651  -4.9747  -4.9427  -4.9145   3.5650  10.6968  13.8359
    14.6221  18.2497  19.6339

          k = 0.8333-0.1667 0.8333 (  1941 PWs)   bands (ev):

    -5.3517  -5.2517  -4.9888  -4.9525  -4.8980   4.4419   9.6629  12.3022
    14.6561  18.3274  21.3850

          k = 0.7500-0.0833 0.7500 (  1927 PWs)   bands (ev):

    -5.3232  -5.1954  -5.0058  -4.9950  -4.9178   4.9792   9.3330  10.9812
    15.0188  18.5473  23.6423

          k = 0.6667-0.0000 0.6667 (  1935 PWs)   bands (ev):

    -5.2915  -5.1132  -5.0590  -5.0317  -4.9577   4.7200   9.9770  10.2397
    15.6824  18.9635  26.1527

          k = 0.0000 0.8333 0.0000 (  1956 PWs)   bands (ev):

    -5.4014  -5.2971  -4.9366  -4.9009  -4.9009   4.2464   9.6801  14.2283
    14.2283  17.6099  18.7727

          k = 0.9167-0.0833 0.9167 (  1948 PWs)   bands (ev):

    -5.3953  -5.3004  -4.9401  -4.8971  -4.8855   4.9430   8.8950  13.2334
    14.1631  17.8494  19.3819

          k = 0.8333 0.0000 0.8333 (  1938 PWs)   bands (ev):

    -5.3625  -5.2666  -4.9600  -4.9326  -4.8974   5.2381   8.8978  11.7475
    14.4340  18.1562  21.2468

          k = 0.0000-1.0000 0.0000 (  1964 PWs)   bands (ev):

    -5.4139  -5.3164  -4.9272  -4.8760  -4.8760   5.2192   8.4302  13.9937
    13.9937  17.3872  18.6646

          k =-0.1667 0.3333 0.0000 (  1950 PWs)   bands (ev):

    -5.2555  -5.1639  -5.1458  -5.1044  -5.0222   0.7535  15.0355  16.4559
    18.7785  21.5313  22.3240

          k =-0.2500 0.4167-0.0833 (  1941 PWs)   bands (ev):

    -5.2527  -5.1736  -5.1315  -5.0825  -4.9864   1.4460  12.8585  15.5627
    18.2315  21.3623  22.7276

          k =-0.3333 0.5000-0.1667 (  1938 PWs)   bands (ev):

    -5.2464  -5.1940  -5.1418  -5.0313  -4.9499   2.3760  10.6068  15.1942
    17.4379  20.9194  23.2743

          k = 0.5833-0.4167 0.7500 (  1938 PWs)   bands (ev):

    -5.2406  -5.2134  -5.1503  -4.9869  -4.9266   3.4051   8.7468  15.0726
    16.7895  20.6788  22.9969

          k = 0.5000-0.3333 0.6667 (  1952 PWs)   bands (ev):

    -5.2357  -5.2243  -5.1534  -4.9679  -4.9204   3.9829   7.8880  15.0643
    16.5301  20.6031  22.8619

          k =-0.1667 0.5000 0.0000 (  1945 PWs)   bands (ev):

    -5.2971  -5.1749  -5.0913  -5.0596  -4.9774   1.6764  13.3405  15.1202
    16.7217  20.4622  20.7794

          k =-0.2500 0.5833-0.0833 (  1939 PWs)   bands (ev):

    -5.2878  -5.1917  -5.0942  -5.0245  -4.9449   2.5190  11.5084  14.2377
    15.9594  20.2302  22.1517

          k = 0.6667-0.3333 0.8333 (  1940 PWs)   bands (ev):

    -5.2719  -5.1918  -5.0984  -5.0152  -4.9211   3.5072   9.6891  13.7290
    15.3993  20.1583  23.9002

          k = 0.5833-0.2500 0.7500 (  1942 PWs)   bands (ev):

    -5.2571  -5.1872  -5.0915  -5.0224  -4.9191   4.2766   8.5318  13.2830
    15.3566  20.3006  23.9476

          k = 0.5000-0.1667 0.6667 (  1944 PWs)   bands (ev):

    -5.2386  -5.1927  -5.0923  -5.0196  -4.9412   4.0736   8.8419  12.9735
    15.7823  20.6477  23.6398

          k = 0.4167-0.0833 0.5833 (  1941 PWs)   bands (ev):

    -5.2155  -5.2101  -5.1046  -5.0209  -4.9668   3.1574  10.3150  12.9699
    16.5380  21.1604  23.4962

          k = 0.3333 0.0000 0.5000 (  1937 PWs)   bands (ev):

    -5.2360  -5.1912  -5.1081  -5.0628  -4.9714   2.2065  11.9266  13.6517
    17.4741  21.6475  22.9640

          k =-0.1667 0.6667-0.0000 (  1944 PWs)   bands (ev):

    -5.3393  -5.2313  -5.0302  -4.9695  -4.9379   2.9238  11.5908  14.0852
    14.8031  19.3566  20.1779

          k = 0.7500-0.2500 0.9167 (  1945 PWs)   bands (ev):

    -5.3204  -5.2316  -5.0410  -4.9610  -4.9155   3.8321  10.3152  12.9062
    14.3019  19.5569  21.6416

          k = 0.6667-0.1667 0.8333 (  1929 PWs)   bands (ev):

    -5.2957  -5.1939  -5.0555  -4.9962  -4.9083   4.6353   9.3434  11.8436
    14.3599  19.7341  23.7865

          k = 0.5833-0.0833 0.7500 (  1934 PWs)   bands (ev):

    -5.2713  -5.1385  -5.0764  -5.0353  -4.9315   4.7320   9.3716  11.1479
    14.8153  20.0962  25.4098

          k = 0.5000 0.0000 0.6667 (  1940 PWs)   bands (ev):

    -5.2434  -5.1544  -5.0898  -5.0163  -4.9742   4.0440  10.1181  11.2887
    15.5760  20.6365  25.0035

          k = 0.8333-0.1667 1.0000 (  1947 PWs)   bands (ev):

    -5.3702  -5.2782  -4.9726  -4.9170  -4.9013   4.3546   9.7386  13.4320
    13.6677  18.7635  19.8123

          k = 0.7500-0.0833 0.9167 (  1936 PWs)   bands (ev):

    -5.3398  -5.2588  -4.9868  -4.9521  -4.8883   5.0364   9.2278  11.9503
    13.6517  19.2380  21.3740

          k = 0.6667 0.0000 0.8333 (  1929 PWs)   bands (ev):

    -5.3052  -5.1967  -5.0264  -4.9988  -4.9043   5.1671   9.5755  10.6275
    14.0798  19.5959  23.6748

          k =-0.1667-1.0000-0.0000 (  1940 PWs)   bands (ev):

    -5.3814  -5.2960  -4.9442  -4.9160  -4.8759   5.2468   8.6650  13.2088
    13.3171  18.5752  19.6906

          k = 0.6667-0.3333 1.0000 (  1930 PWs)   bands (ev):

    -5.2616  -5.2083  -5.0967  -4.9728  -4.9577   3.3820  10.7931  12.6347
    15.0091  21.3572  22.3799

          k = 0.5833-0.2500 0.9167 (  1933 PWs)   bands (ev):

    -5.2342  -5.2044  -5.0966  -5.0007  -4.9288   4.2825   9.7169  11.9906
    14.2417  21.5685  23.5604

          k = 0.5000-0.1667 0.8333 (  1930 PWs)   bands (ev):

    -5.2330  -5.1876  -5.0827  -5.0361  -4.9135   4.7441   9.1130  11.8843
    13.9463  21.5761  23.5931

          k = 0.6667-0.1667 1.0000 (  1946 PWs)   bands (ev):

    -5.2827  -5.2355  -5.0563  -4.9665  -4.9024   4.6341   9.8587  11.9955
    13.1338  21.0743  21.9875

          k = 0.5833-0.0833 0.9167 (  1929 PWs)   bands (ev):

    -5.2489  -5.1969  -5.0916  -5.0069  -4.8889   5.1358   9.7629  11.0088
    12.8773  21.6309  23.8504

          k = 0.5000 0.0000 0.8333 (  1932 PWs)   bands (ev):

    -5.2330  -5.1577  -5.1302  -5.0168  -4.9037   4.9552  10.0577  10.6403
    13.3386  21.9602  24.5996

          k =-0.3333-1.0000 0.0000 (  1940 PWs)   bands (ev):

    -5.2905  -5.2476  -5.0226  -4.9865  -4.8759   5.3047   9.3479  11.7773
    12.4449  20.9647  21.8542

          k =-0.5000-1.0000 0.0000 (  1912 PWs)   bands (ev):

    -5.2159  -5.1603  -5.1603  -5.0149  -4.8757   5.3352  10.4188  10.4188
    12.1094  23.0944  24.4584

     the Fermi energy is    11.9136 ev

!    total energy              =    -135.43474429 Ry
     estimated scf accuracy    <          1.3E-10 Ry
     smearing contrib. (-TS)   =      -0.00090343 Ry
     internal energy E=F+TS    =    -135.43384086 Ry

     The total energy is F=E-TS. E is the sum of the following terms:
     one-electron contribution =     -31.47748272 Ry
     hartree contribution      =      26.10788015 Ry
     xc contribution           =     -32.62566112 Ry
     ewald contribution        =     -97.43857717 Ry

     convergence has been achieved in   7 iterations

     Writing output data file /home/elena/AEP_DFT/DFT/tmp/vib/Pb.save/

     init_run     :      1.50s CPU      1.54s WALL (       1 calls)
     electrons    :     26.03s CPU     26.82s WALL (       1 calls)

     Called by init_run:
     wfcinit      :      0.89s CPU      0.89s WALL (       1 calls)
     potinit      :      0.07s CPU      0.07s WALL (       1 calls)
     hinit0       :      0.43s CPU      0.43s WALL (       1 calls)

     Called by electrons:
     c_bands      :     20.92s CPU     21.01s WALL (       8 calls)
     sum_band     :      4.22s CPU      4.61s WALL (       8 calls)
     v_of_rho     :      0.40s CPU      0.44s WALL (       8 calls)
     newd         :      0.55s CPU      0.84s WALL (       8 calls)
     mix_rho      :      0.03s CPU      0.03s WALL (       8 calls)

     Called by c_bands:
     init_us_2    :      0.53s CPU      0.54s WALL (    1224 calls)
     cegterg      :     20.10s CPU     20.18s WALL (     576 calls)

     Called by *egterg:
     cdiaghg      :      0.25s CPU      0.25s WALL (    2267 calls)
     h_psi        :     16.59s CPU     16.66s WALL (    2411 calls)
     s_psi        :      0.68s CPU      0.68s WALL (    2411 calls)
     g_psi        :      0.07s CPU      0.07s WALL (    1763 calls)

     Called by h_psi:
     h_psi:calbec :      0.80s CPU      0.80s WALL (    2411 calls)
     vloc_psi     :     15.05s CPU     15.11s WALL (    2411 calls)
     add_vuspsi   :      0.68s CPU      0.68s WALL (    2411 calls)

     General routines
     calbec       :      1.09s CPU      1.09s WALL (    2987 calls)
     fft          :      0.18s CPU      0.18s WALL (     103 calls)
     ffts         :      0.01s CPU      0.01s WALL (      16 calls)
     fftw         :     16.22s CPU     16.29s WALL (   41504 calls)
     interpolate  :      0.03s CPU      0.03s WALL (       8 calls)


     PWSCF        :     27.66s CPU     28.51s WALL


   This run was terminated on:  11:25:40   2Jul2021            

=------------------------------------------------------------------------------=
   JOB DONE.
=------------------------------------------------------------------------------=
