
     Program PHONON v.6.7MaX starts on  2Jul2021 at 12:44:54 

     This program is part of the open-source Quantum ESPRESSO suite
     for quantum simulation of materials; please cite
         "P. Giannozzi et al., J. Phys.:Condens. Matter 21 395502 (2009);
         "P. Giannozzi et al., J. Phys.:Condens. Matter 29 465901 (2017);
          URL http://www.quantum-espresso.org", 
     in publications or presentations arising from this work. More details at
     http://www.quantum-espresso.org/quote

     Serial version
     Waiting for input...
     Reading input from standard input

     Reading xml data from directory:

     /home/elena/AEP_DFT/DFT/tmp/vib/Pb.save/
     file Pb.pbe-dn-rrkjus_psl.1.0.0.UPF: wavefunction(s)  6S 5D renormalized

     IMPORTANT: XC functional enforced from input :
     Exchange-correlation= PBE
                           (   1   4   3   4   0   0   0)
     Any further DFT definition will be discarded
     Please, verify this is what you really want


     G-vector sticks info
     --------------------
     sticks:   dense  smooth     PW     G-vecs:    dense   smooth      PW
     Sum        1639     823    253                43895    15593    2685

     Reading collected, re-writing distributed wavefunctions

     Saving dvscf to file. Distribute only q points, not irreducible represetations.

     Calculation of q =    0.0000000   0.0000000   0.0000000

     ABC                                                                        

     bravais-lattice index     =            2
     lattice parameter (alat)  =       9.2226  a.u.
     unit-cell volume          =     196.1075 (a.u.)^3
     number of atoms/cell      =            1
     number of atomic types    =            1
     kinetic-energy cut-off    =      70.0000  Ry
     charge density cut-off    =     560.0000  Ry
     convergence threshold     =      1.0E-12
     beta                      =       0.7000
     number of iterations used =            4
     Exchange-correlation= PBE
                           (   1   4   3   4   0   0   0)


     celldm(1)=    9.22256  celldm(2)=    0.00000  celldm(3)=    0.00000
     celldm(4)=    0.00000  celldm(5)=    0.00000  celldm(6)=    0.00000

     crystal axes: (cart. coord. in units of alat)
               a(1) = ( -0.5000  0.0000  0.5000 )  
               a(2) = (  0.0000  0.5000  0.5000 )  
               a(3) = ( -0.5000  0.5000  0.0000 )  

     reciprocal axes: (cart. coord. in units 2 pi/alat)
               b(1) = ( -1.0000 -1.0000  1.0000 )  
               b(2) = (  1.0000  1.0000  1.0000 )  
               b(3) = ( -1.0000  1.0000 -1.0000 )  


     Atoms inside the unit cell: 

     Cartesian axes

     site n.  atom      mass           positions (alat units)
        1     Pb 207.2000   tau(    1) = (    0.00000    0.00000    0.00000  )

     Computing dynamical matrix for 
                    q = (   0.0000000   0.0000000   0.0000000 )

     49 Sym.Ops. (with q -> -q+G )


     G cutoff = 1206.5105  (  43895 G-vectors)     FFT grid: ( 50, 50, 50)
     G cutoff =  603.2553  (  15593 G-vectors)  smooth grid: ( 36, 36, 36)

     number of k points=   195  Methfessel-Paxton smearing, width (Ry)=  0.0090

     PseudoPot. # 1 for Pb read from file:
     /home/elena/qe-6.7/pseudo/Pb.pbe-dn-rrkjus_psl.1.0.0.UPF
     MD5 check sum: 1cf8f5e18580e6a90a35f98a53d336de
     Pseudo is Ultrasoft + core correction, Zval = 14.0
     Generated using &quot;atomic&quot; code by A. Dal Corso  v.6.3
     Using radial grid of 1281 points,  6 beta functions with: 
                l(1) =   0
                l(2) =   0
                l(3) =   1
                l(4) =   1
                l(5) =   2
                l(6) =   2
     Q(r) pseudized with 0 coefficients 


     Mode symmetry, O_h (m-3m)  point group:


     Atomic displacements:
     There are    1 irreducible representations

     Representation     1      3 modes -  To be done



     Alpha used in Ewald sum =   2.8000
     PHONON       :      8.96s CPU      9.10s WALL



     Representation #   1 modes #   1   2   3

     Self-consistent Calculation

     Pert. #  1: Fermi energy shift (Ry) =     0.0000E+00     8.8162E-39
     Pert. #  2: Fermi energy shift (Ry) =     6.8932E-26     0.0000E+00
     Pert. #  3: Fermi energy shift (Ry) =    -5.5145E-25     0.0000E+00

      iter #   1 total cpu time :    66.5 secs   av.it.:   9.0
      thresh= 1.000E-02 alpha_mix =  0.700 |ddv_scf|^2 =  1.032E-06

     Pert. #  1: Fermi energy shift (Ry) =    -1.6544E-24     0.0000E+00
     Pert. #  2: Fermi energy shift (Ry) =     1.6544E-24     0.0000E+00
     Pert. #  3: Fermi energy shift (Ry) =    -2.7573E-25     0.0000E+00

      iter #   2 total cpu time :   145.0 secs   av.it.:  14.7
      thresh= 1.016E-04 alpha_mix =  0.700 |ddv_scf|^2 =  9.118E-08

     Pert. #  1: Fermi energy shift (Ry) =    -1.1029E-24     0.0000E+00
     Pert. #  2: Fermi energy shift (Ry) =    -1.5165E-24     0.0000E+00
     Pert. #  3: Fermi energy shift (Ry) =     0.0000E+00     0.0000E+00

      iter #   3 total cpu time :   221.5 secs   av.it.:  14.4
      thresh= 3.020E-05 alpha_mix =  0.700 |ddv_scf|^2 =  4.420E-11

     Pert. #  1: Fermi energy shift (Ry) =    -1.1029E-24    -5.3571E-41
     Pert. #  2: Fermi energy shift (Ry) =     8.2718E-25    -4.5918E-41
     Pert. #  3: Fermi energy shift (Ry) =     0.0000E+00    -3.0612E-41

      iter #   4 total cpu time :   298.2 secs   av.it.:  14.4
      thresh= 6.648E-07 alpha_mix =  0.700 |ddv_scf|^2 =  6.280E-13

     End of self-consistent calculation

     Convergence has been achieved 

     Number of q in the star =    1
     List of q in the star:
          1   0.000000000   0.000000000   0.000000000

     Diagonalizing the dynamical matrix

     q = (    0.000000000   0.000000000   0.000000000 ) 

 **************************************************************************
     freq (    1) =       0.686007 [THz] =      22.882715 [cm-1]
     freq (    2) =       0.686007 [THz] =      22.882715 [cm-1]
     freq (    3) =       0.686007 [THz] =      22.882715 [cm-1]
 **************************************************************************

     Mode symmetry, O_h (m-3m)  point group:

     freq (   1-   3) =         22.9  [cm-1]   --> T_1u G_15  G_4- I  

     PHONON       :   4m57.45s CPU   4m59.67s WALL

     INITIALIZATION: 
     phq_setup    :      0.12s CPU      0.15s WALL (       1 calls)
     phq_init     :      7.99s CPU      8.05s WALL (       1 calls)

     phq_init     :      7.99s CPU      8.05s WALL (       1 calls)
     set_drhoc    :      1.25s CPU      1.25s WALL (       3 calls)
     init_vloc    :      0.00s CPU      0.00s WALL (       1 calls)
     init_us_1    :      0.38s CPU      0.38s WALL (       1 calls)
     newd         :      0.08s CPU      0.10s WALL (       1 calls)
     dvanqq       :      0.65s CPU      0.65s WALL (       1 calls)
     drho         :      4.45s CPU      4.49s WALL (       1 calls)

     DYNAMICAL MATRIX:
     dynmat0      :      1.67s CPU      1.68s WALL (       1 calls)
     phqscf       :    288.49s CPU    290.53s WALL (       1 calls)
     dynmatrix    :      0.00s CPU      0.00s WALL (       1 calls)

     phqscf       :    288.49s CPU    290.53s WALL (       1 calls)
     solve_linter :    287.21s CPU    289.24s WALL (       1 calls)
     drhodv       :      1.27s CPU      1.29s WALL (       1 calls)

     dynmat0      :      1.67s CPU      1.68s WALL (       1 calls)
     dynmat_us    :      0.78s CPU      0.79s WALL (       1 calls)
     d2ionq       :      0.00s CPU      0.00s WALL (       1 calls)
     dynmatcc     :      0.88s CPU      0.89s WALL (       1 calls)

     dynmat_us    :      0.78s CPU      0.79s WALL (       1 calls)
     addusdynmat  :      0.00s CPU      0.00s WALL (       1 calls)

     phqscf       :    288.49s CPU    290.53s WALL (       1 calls)
     solve_linter :    287.21s CPU    289.24s WALL (       1 calls)

     solve_linter :    287.21s CPU    289.24s WALL (       1 calls)
     dvqpsi_us    :      7.11s CPU      7.15s WALL (     585 calls)
     ortho        :      2.83s CPU      2.88s WALL (    2340 calls)
     cgsolve      :    243.87s CPU    245.01s WALL (    2340 calls)
     incdrhoscf   :     16.19s CPU     16.53s WALL (    2340 calls)
     addusddens   :      0.69s CPU      0.69s WALL (       5 calls)
     vpsifft      :     10.32s CPU     10.54s WALL (    1755 calls)
     dv_of_drho   :      0.37s CPU      0.41s WALL (      12 calls)
     mix_pot      :      0.03s CPU      0.07s WALL (       4 calls)
     ef_shift     :      0.06s CPU      0.13s WALL (       5 calls)
     localdos     :      1.38s CPU      1.39s WALL (       1 calls)
     symdvscf     :      1.50s CPU      1.50s WALL (       4 calls)
     newdq        :      0.95s CPU      0.96s WALL (       4 calls)
     adddvscf     :      0.81s CPU      0.82s WALL (    1755 calls)
     drhodvus     :      0.00s CPU      0.00s WALL (       1 calls)

     dvqpsi_us    :      7.11s CPU      7.15s WALL (     585 calls)
     dvqpsi_us_on :      1.14s CPU      1.14s WALL (     585 calls)

     cgsolve      :    243.87s CPU    245.01s WALL (    2340 calls)
     ch_psi       :    238.04s CPU    239.15s WALL (   37286 calls)

     ch_psi       :    238.04s CPU    239.15s WALL (   37286 calls)
     h_psi        :    203.79s CPU    204.77s WALL (   37286 calls)
     last         :     25.70s CPU     25.80s WALL (   37286 calls)

     h_psi        :    203.79s CPU    204.77s WALL (   37286 calls)
     add_vuspsi   :      7.78s CPU      7.81s WALL (   37286 calls)

     incdrhoscf   :     16.19s CPU     16.53s WALL (    2340 calls)
     addusdbec    :      1.43s CPU      1.44s WALL (    2925 calls)

     drhodvus     :      0.00s CPU      0.00s WALL (       1 calls)

      General routines
     calbec       :     23.27s CPU     23.38s WALL (   84322 calls)
     fft          :      0.46s CPU      0.48s WALL (     286 calls)
     ffts         :      1.41s CPU      1.42s WALL (    1986 calls)
     fftw         :    198.59s CPU    199.95s WALL (  522221 calls)
     davcio       :      0.74s CPU      0.86s WALL (   10177 calls)
     write_rec    :      0.00s CPU      0.02s WALL (       5 calls)


     PHONON       :   4m57.45s CPU   4m59.67s WALL


   This run was terminated on:  12:49:54   2Jul2021            

=------------------------------------------------------------------------------=
   JOB DONE.
=------------------------------------------------------------------------------=
