
     Program PWSCF v.6.7MaX starts on  2Jul2021 at 11:18:53 

     This program is part of the open-source Quantum ESPRESSO suite
     for quantum simulation of materials; please cite
         "P. Giannozzi et al., J. Phys.:Condens. Matter 21 395502 (2009);
         "P. Giannozzi et al., J. Phys.:Condens. Matter 29 465901 (2017);
          URL http://www.quantum-espresso.org", 
     in publications or presentations arising from this work. More details at
     http://www.quantum-espresso.org/quote

     Serial version
     Waiting for input...
     Reading input from standard input

     Current dimensions of program PWSCF are:
     Max number of different atomic species (ntypx) = 10
     Max number of k-points (npk) =  40000
     Max angular momentum in pseudopotentials (lmaxx) =  3
     file Pb.pbe-dn-rrkjus_psl.1.0.0.UPF: wavefunction(s)  6S 5D renormalized

     G-vector sticks info
     --------------------
     sticks:   dense  smooth     PW     G-vecs:    dense   smooth      PW
     Sum        1639     823    253                43895    15593    2685


     Title: 
     Lead                                                                       


     bravais-lattice index     =            2
     lattice parameter (alat)  =       9.2226  a.u.
     unit-cell volume          =     196.1075 (a.u.)^3
     number of atoms/cell      =            1
     number of atomic types    =            1
     number of electrons       =        14.00
     number of Kohn-Sham states=           11
     kinetic-energy cutoff     =      70.0000  Ry
     charge density cutoff     =     560.0000  Ry
     scf convergence threshold =      1.0E-09
     mixing beta               =       0.7000
     number of iterations used =            8  plain     mixing
     Exchange-correlation= PBE
                           (   1   4   3   4   0   0   0)

     celldm(1)=   9.222558  celldm(2)=   0.000000  celldm(3)=   0.000000
     celldm(4)=   0.000000  celldm(5)=   0.000000  celldm(6)=   0.000000

     crystal axes: (cart. coord. in units of alat)
               a(1) = (  -0.500000   0.000000   0.500000 )  
               a(2) = (   0.000000   0.500000   0.500000 )  
               a(3) = (  -0.500000   0.500000   0.000000 )  

     reciprocal axes: (cart. coord. in units 2 pi/alat)
               b(1) = ( -1.000000 -1.000000  1.000000 )  
               b(2) = (  1.000000  1.000000  1.000000 )  
               b(3) = ( -1.000000  1.000000 -1.000000 )  


     PseudoPot. # 1 for Pb read from file:
     /home/elena/qe-6.7/pseudo/Pb.pbe-dn-rrkjus_psl.1.0.0.UPF
     MD5 check sum: 1cf8f5e18580e6a90a35f98a53d336de
     Pseudo is Ultrasoft + core correction, Zval = 14.0
     Generated using &quot;atomic&quot; code by A. Dal Corso  v.6.3
     Using radial grid of 1281 points,  6 beta functions with: 
                l(1) =   0
                l(2) =   0
                l(3) =   1
                l(4) =   1
                l(5) =   2
                l(6) =   2
     Q(r) pseudized with 0 coefficients 


     atomic species   valence    mass     pseudopotential
        Pb            14.00   207.20000     Pb( 1.00)

     48 Sym. Ops., with inversion, found



   Cartesian axes

     site n.     atom                  positions (alat units)
         1           Pb  tau(   1) = (   0.0000000   0.0000000   0.0000000  )

     number of k points=    47  Methfessel-Paxton smearing, width (Ry)=  0.0100
                       cart. coord. in units 2pi/alat
        k(    1) = (   0.0000000   0.0000000   0.0000000), wk =   0.0020000
        k(    2) = (  -0.1000000   0.1000000  -0.1000000), wk =   0.0160000
        k(    3) = (  -0.2000000   0.2000000  -0.2000000), wk =   0.0160000
        k(    4) = (  -0.3000000   0.3000000  -0.3000000), wk =   0.0160000
        k(    5) = (  -0.4000000   0.4000000  -0.4000000), wk =   0.0160000
        k(    6) = (   0.5000000  -0.5000000   0.5000000), wk =   0.0080000
        k(    7) = (   0.0000000   0.2000000   0.0000000), wk =   0.0120000
        k(    8) = (  -0.1000000   0.3000000  -0.1000000), wk =   0.0480000
        k(    9) = (  -0.2000000   0.4000000  -0.2000000), wk =   0.0480000
        k(   10) = (  -0.3000000   0.5000000  -0.3000000), wk =   0.0480000
        k(   11) = (   0.6000000  -0.4000000   0.6000000), wk =   0.0480000
        k(   12) = (   0.5000000  -0.3000000   0.5000000), wk =   0.0480000
        k(   13) = (   0.4000000  -0.2000000   0.4000000), wk =   0.0480000
        k(   14) = (   0.3000000  -0.1000000   0.3000000), wk =   0.0480000
        k(   15) = (   0.2000000   0.0000000   0.2000000), wk =   0.0240000
        k(   16) = (   0.0000000   0.4000000   0.0000000), wk =   0.0120000
        k(   17) = (  -0.1000000   0.5000000  -0.1000000), wk =   0.0480000
        k(   18) = (  -0.2000000   0.6000000  -0.2000000), wk =   0.0480000
        k(   19) = (   0.7000000  -0.3000000   0.7000000), wk =   0.0480000
        k(   20) = (   0.6000000  -0.2000000   0.6000000), wk =   0.0480000
        k(   21) = (   0.5000000  -0.1000000   0.5000000), wk =   0.0480000
        k(   22) = (   0.4000000   0.0000000   0.4000000), wk =   0.0240000
        k(   23) = (   0.0000000   0.6000000   0.0000000), wk =   0.0120000
        k(   24) = (  -0.1000000   0.7000000  -0.1000000), wk =   0.0480000
        k(   25) = (   0.8000000  -0.2000000   0.8000000), wk =   0.0480000
        k(   26) = (   0.7000000  -0.1000000   0.7000000), wk =   0.0480000
        k(   27) = (   0.6000000  -0.0000000   0.6000000), wk =   0.0240000
        k(   28) = (   0.0000000   0.8000000   0.0000000), wk =   0.0120000
        k(   29) = (   0.9000000  -0.1000000   0.9000000), wk =   0.0480000
        k(   30) = (   0.8000000   0.0000000   0.8000000), wk =   0.0240000
        k(   31) = (   0.0000000  -1.0000000   0.0000000), wk =   0.0060000
        k(   32) = (  -0.2000000   0.4000000   0.0000000), wk =   0.0480000
        k(   33) = (  -0.3000000   0.5000000  -0.1000000), wk =   0.0960000
        k(   34) = (   0.6000000  -0.4000000   0.8000000), wk =   0.0960000
        k(   35) = (   0.5000000  -0.3000000   0.7000000), wk =   0.0480000
        k(   36) = (  -0.2000000   0.6000000   0.0000000), wk =   0.0480000
        k(   37) = (   0.7000000  -0.3000000   0.9000000), wk =   0.0960000
        k(   38) = (   0.6000000  -0.2000000   0.8000000), wk =   0.0960000
        k(   39) = (   0.5000000  -0.1000000   0.7000000), wk =   0.0960000
        k(   40) = (   0.4000000   0.0000000   0.6000000), wk =   0.0480000
        k(   41) = (   0.8000000  -0.2000000   1.0000000), wk =   0.0480000
        k(   42) = (   0.7000000  -0.1000000   0.9000000), wk =   0.0960000
        k(   43) = (   0.6000000   0.0000000   0.8000000), wk =   0.0480000
        k(   44) = (  -0.2000000  -1.0000000   0.0000000), wk =   0.0240000
        k(   45) = (   0.6000000  -0.2000000   1.0000000), wk =   0.0480000
        k(   46) = (   0.5000000  -0.1000000   0.9000000), wk =   0.0480000
        k(   47) = (  -0.4000000  -1.0000000   0.0000000), wk =   0.0240000

     Dense  grid:    43895 G-vectors     FFT dimensions: (  50,  50,  50)

     Smooth grid:    15593 G-vectors     FFT dimensions: (  36,  36,  36)

     Estimated max dynamical RAM per process >     169.93 MB

     Initial potential from superposition of free atoms

     starting charge   13.99765, renormalised to   14.00000
     Starting wfcs are    9 randomized atomic wfcs +    2 random wfcs

     total cpu time spent up to now is        1.7 secs

     Self-consistent Calculation

     iteration #  1     ecut=    70.00 Ry     beta= 0.70
     Davidson diagonalization with overlap
     ethr =  1.00E-02,  avg # of iterations =  4.6

     Threshold (ethr) on eigenvalues was too large:
     Diagonalizing with lowered threshold

     Davidson diagonalization with overlap
     ethr =  1.73E-05,  avg # of iterations =  5.9

     total cpu time spent up to now is        9.1 secs

     total energy              =    -135.43493078 Ry
     estimated scf accuracy    <       0.00243621 Ry

     iteration #  2     ecut=    70.00 Ry     beta= 0.70
     Davidson diagonalization with overlap
     ethr =  1.74E-05,  avg # of iterations =  2.1

     total cpu time spent up to now is       12.3 secs

     total energy              =    -135.43544358 Ry
     estimated scf accuracy    <       0.00019204 Ry

     iteration #  3     ecut=    70.00 Ry     beta= 0.70
     Davidson diagonalization with overlap
     ethr =  1.37E-06,  avg # of iterations =  3.0

     total cpu time spent up to now is       15.9 secs

     total energy              =    -135.43547390 Ry
     estimated scf accuracy    <       0.00000803 Ry

     iteration #  4     ecut=    70.00 Ry     beta= 0.70
     Davidson diagonalization with overlap
     ethr =  5.74E-08,  avg # of iterations =  2.0

     total cpu time spent up to now is       18.7 secs

     total energy              =    -135.43547482 Ry
     estimated scf accuracy    <       0.00000060 Ry

     iteration #  5     ecut=    70.00 Ry     beta= 0.70
     Davidson diagonalization with overlap
     ethr =  4.25E-09,  avg # of iterations =  2.0

     total cpu time spent up to now is       22.3 secs

     total energy              =    -135.43547501 Ry
     estimated scf accuracy    <       0.00000009 Ry

     iteration #  6     ecut=    70.00 Ry     beta= 0.70
     Davidson diagonalization with overlap
     ethr =  6.49E-10,  avg # of iterations =  2.0

     total cpu time spent up to now is       25.0 secs

     total energy              =    -135.43547502 Ry
     estimated scf accuracy    <          1.1E-09 Ry

     iteration #  7     ecut=    70.00 Ry     beta= 0.70
     Davidson diagonalization with overlap
     ethr =  8.01E-12,  avg # of iterations =  3.0

     total cpu time spent up to now is       27.9 secs

     End of self-consistent calculation

          k = 0.0000 0.0000 0.0000 (  1917 PWs)   bands (ev):

    -5.2370  -5.2370  -5.2370  -5.0781  -5.0781  -0.1828  19.6425  19.6425
    19.6425  21.9772  23.7520

          k =-0.1000 0.1000-0.1000 (  1940 PWs)   bands (ev):

    -5.2380  -5.2216  -5.2216  -5.0788  -5.0788   0.0185  17.5267  19.3920
    19.3920  21.6084  25.1395

          k =-0.2000 0.2000-0.2000 (  1943 PWs)   bands (ev):

    -5.2438  -5.1983  -5.1983  -5.0624  -5.0624   0.6238  14.2690  18.8401
    18.8401  21.2653  24.4743

          k =-0.3000 0.3000-0.3000 (  1934 PWs)   bands (ev):

    -5.2566  -5.2025  -5.2025  -5.0076  -5.0076   1.6173  11.2221  18.2724
    18.2724  21.1161  23.1778

          k =-0.4000 0.4000-0.4000 (  1937 PWs)   bands (ev):

    -5.2709  -5.2183  -5.2183  -4.9499  -4.9499   2.8785   8.6952  17.8640
    17.8640  21.1873  22.2223

          k = 0.5000-0.5000 0.5000 (  1946 PWs)   bands (ev):

    -5.2773  -5.2255  -5.2255  -4.9263  -4.9263   3.6991   7.4485  17.7161
    17.7161  21.3867  21.7284

          k = 0.0000 0.2000 0.0000 (  1941 PWs)   bands (ev):

    -5.2553  -5.2058  -5.2058  -5.0972  -5.0649   0.0854  18.1886  18.5759
    18.5759  21.1811  24.1171

          k =-0.1000 0.3000-0.1000 (  1945 PWs)   bands (ev):

    -5.2650  -5.1787  -5.1745  -5.1076  -5.0447   0.5559  15.3798  17.7853
    18.3568  21.3280  22.7871

          k =-0.2000 0.4000-0.2000 (  1944 PWs)   bands (ev):

    -5.2661  -5.1870  -5.1686  -5.0706  -4.9953   1.4221  12.3049  17.2227
    17.6670  20.9676  23.2283

          k =-0.3000 0.5000-0.3000 (  1935 PWs)   bands (ev):

    -5.2673  -5.2091  -5.1836  -5.0097  -4.9427   2.6126   9.6165  16.8796
    16.9846  20.4711  23.5218

          k = 0.6000-0.4000 0.6000 (  1942 PWs)   bands (ev):

    -5.2653  -5.2236  -5.1971  -4.9617  -4.9246   3.7208   7.8182  16.2371
    17.1222  20.4098  23.1361

          k = 0.5000-0.3000 0.5000 (  1941 PWs)   bands (ev):

    -5.2564  -5.2239  -5.1981  -4.9547  -4.9482   3.4239   8.2576  15.8915
    17.6379  20.7569  22.7787

          k = 0.4000-0.2000 0.4000 (  1942 PWs)   bands (ev):

    -5.2476  -5.2090  -5.1857  -5.0210  -4.9729   2.1892  10.4585  15.9080
    18.4539  21.4672  22.6339

          k = 0.3000-0.1000 0.3000 (  1940 PWs)   bands (ev):

    -5.2443  -5.1924  -5.1750  -5.0868  -5.0188   1.0912  13.2841  16.3111
    19.3353  22.1924  22.9649

          k = 0.2000 0.0000 0.2000 (  1945 PWs)   bands (ev):

    -5.2437  -5.2012  -5.1969  -5.0959  -5.0576   0.3546  16.0985  17.3451
    19.7772  22.0138  24.1664

          k = 0.0000 0.4000 0.0000 (  1956 PWs)   bands (ev):

    -5.3025  -5.1530  -5.1220  -5.1220  -5.0303   0.8908  15.7284  16.8063
    16.8063  20.0945  20.9433

          k =-0.1000 0.5000-0.1000 (  1946 PWs)   bands (ev):

    -5.3160  -5.1867  -5.0949  -5.0733  -4.9896   1.6219  13.3664  16.0567
    16.1239  19.7820  20.8981

          k =-0.2000 0.6000-0.2000 (  1936 PWs)   bands (ev):

    -5.3070  -5.1996  -5.1051  -5.0428  -4.9368   2.6985  10.7838  14.9339
    15.8325  19.3397  22.9060

          k = 0.7000-0.3000 0.7000 (  1940 PWs)   bands (ev):

    -5.2919  -5.1869  -5.1221  -5.0266  -4.9201   3.8695   8.7747  13.9390
    15.9781  19.3120  25.2132

          k = 0.6000-0.2000 0.6000 (  1941 PWs)   bands (ev):

    -5.2700  -5.1781  -5.1317  -5.0107  -4.9538   4.1171   8.4387  13.2942
    16.5623  19.6511  24.9211

          k = 0.5000-0.1000 0.5000 (  1940 PWs)   bands (ev):

    -5.2395  -5.1940  -5.1281  -5.0263  -4.9943   3.0818  10.1030  13.1252
    17.5218  20.3477  24.5083

          k = 0.4000 0.0000 0.4000 (  1947 PWs)   bands (ev):

    -5.2238  -5.2087  -5.1120  -5.1098  -4.9936   1.9393  12.1701  13.8512
    18.6520  21.4039  23.8180

          k = 0.0000 0.6000 0.0000 (  1960 PWs)   bands (ev):

    -5.3606  -5.2311  -5.0141  -5.0141  -4.9873   2.2146  12.9144  15.3029
    15.3029  18.7941  19.2918

          k =-0.1000 0.7000-0.1000 (  1945 PWs)   bands (ev):

    -5.3673  -5.2566  -5.0115  -4.9797  -4.9346   3.1564  11.2300  13.9801
    14.8865  18.5149  20.0845

          k = 0.8000-0.2000 0.8000 (  1934 PWs)   bands (ev):

    -5.3437  -5.2362  -5.0286  -4.9905  -4.9129   4.2551   9.6942  12.3320
    14.9313  18.5282  22.3538

          k = 0.7000-0.1000 0.7000 (  1930 PWs)   bands (ev):

    -5.3131  -5.1618  -5.0466  -5.0416  -4.9433   4.7976   9.1988  11.1426
    15.4416  18.8214  25.1670

          k = 0.6000-0.0000 0.6000 (  1933 PWs)   bands (ev):

    -5.2762  -5.1213  -5.0703  -5.0641  -5.0015   4.1325  10.0176  10.9883
    16.3600  19.4237  27.2820

          k = 0.0000 0.8000 0.0000 (  1944 PWs)   bands (ev):

    -5.4072  -5.3000  -4.9521  -4.9231  -4.9231   3.9428  10.0953  14.3275
    14.3275  17.7093  18.8175

          k = 0.9000-0.1000 0.9000 (  1940 PWs)   bands (ev):

    -5.3990  -5.3045  -4.9583  -4.9175  -4.9000   4.8408   9.0608  12.9961
    14.2337  17.9514  19.7052

          k = 0.8000 0.0000 0.8000 (  1930 PWs)   bands (ev):

    -5.3585  -5.2531  -4.9845  -4.9665  -4.9183   5.2121   9.0973  11.2217
    14.6208  18.2850  22.1560

          k = 0.0000-1.0000 0.0000 (  1964 PWs)   bands (ev):

    -5.4250  -5.3276  -4.9388  -4.8876  -4.8876   5.2140   8.4276  13.9906
    13.9906  17.3857  18.6616

          k =-0.2000 0.4000 0.0000 (  1951 PWs)   bands (ev):

    -5.2743  -5.1740  -5.1257  -5.1213  -5.0120   1.1576  14.0060  15.5981
    18.2421  21.6067  21.6803

          k =-0.3000 0.5000-0.1000 (  1943 PWs)   bands (ev):

    -5.2640  -5.1966  -5.1329  -5.0655  -4.9727   2.1328  11.5563  14.6485
    17.3228  21.0614  23.0694

          k = 0.6000-0.4000 0.8000 (  1935 PWs)   bands (ev):

    -5.2509  -5.2199  -5.1390  -5.0187  -4.9435   3.3431   9.2197  14.3884
    16.4203  20.7606  23.1821

          k = 0.5000-0.3000 0.7000 (  1936 PWs)   bands (ev):

    -5.2388  -5.2375  -5.1397  -5.0000  -4.9335   4.0983   8.0737  14.3611
    16.0444  20.6685  22.9915

          k =-0.2000 0.6000 0.0000 (  1950 PWs)   bands (ev):

    -5.3232  -5.2157  -5.0806  -5.0166  -4.9620   2.4614  12.0968  14.1720
    15.5678  20.0775  20.7804

          k = 0.7000-0.3000 0.9000 (  1936 PWs)   bands (ev):

    -5.3001  -5.2188  -5.0901  -4.9983  -4.9369   3.5723  10.2900  13.0995
    14.7323  20.1885  22.6683

          k = 0.6000-0.2000 0.8000 (  1940 PWs)   bands (ev):

    -5.2769  -5.1890  -5.0875  -5.0374  -4.9278   4.5129   8.9454  12.3617
    14.6232  20.3848  24.4130

          k = 0.5000-0.1000 0.7000 (  1939 PWs)   bands (ev):

    -5.2525  -5.1852  -5.0910  -5.0431  -4.9577   4.2432   9.3750  11.9476
    15.1883  20.8516  24.0731

          k = 0.4000 0.0000 0.6000 (  1936 PWs)   bands (ev):

    -5.2254  -5.2231  -5.1151  -5.0205  -4.9877   3.1568  10.8121  12.4315
    16.1966  21.4406  23.6063

          k = 0.8000-0.2000 1.0000 (  1945 PWs)   bands (ev):

    -5.3633  -5.2746  -5.0093  -4.9367  -4.9239   4.1180  10.0861  13.2523
    13.6962  19.2550  20.2449

          k = 0.7000-0.1000 0.9000 (  1932 PWs)   bands (ev):

    -5.3253  -5.2458  -5.0303  -4.9826  -4.9047   4.9813   9.4279  11.5748
    13.5924  19.7727  22.3155

          k = 0.6000 0.0000 0.8000 (  1937 PWs)   bands (ev):

    -5.2891  -5.1624  -5.0897  -5.0293  -4.9275   4.9985  10.0545  10.1877
    14.1748  20.2388  25.1961

          k =-0.2000-1.0000 0.0000 (  1948 PWs)   bands (ev):

    -5.3787  -5.2989  -4.9630  -4.9446  -4.8875   5.2523   8.7645  12.9346
    13.1158  18.9966  20.0653

          k = 0.6000-0.2000 1.0000 (  1928 PWs)   bands (ev):

    -5.2445  -5.2324  -5.1064  -4.9987  -4.9258   4.5555   9.9955  11.5199
    13.4727  21.9512  23.0515

          k = 0.5000-0.1000 0.9000 (  1932 PWs)   bands (ev):

    -5.2390  -5.1827  -5.1371  -5.0303  -4.9056   5.0753   9.7470  10.9888
    12.9696  22.2628  23.9730

          k =-0.4000-1.0000 0.0000 (  1930 PWs)   bands (ev):

    -5.2529  -5.2403  -5.0876  -5.0147  -4.8874   5.3181   9.7314  11.2056
    12.2301  22.0174  22.8553

     the Fermi energy is    11.9480 ev

!    total energy              =    -135.43547502 Ry
     estimated scf accuracy    <          2.2E-10 Ry
     smearing contrib. (-TS)   =      -0.00009011 Ry
     internal energy E=F+TS    =    -135.43538492 Ry

     The total energy is F=E-TS. E is the sum of the following terms:
     one-electron contribution =     -31.47048559 Ry
     hartree contribution      =      26.09788728 Ry
     xc contribution           =     -32.62420944 Ry
     ewald contribution        =     -97.43857717 Ry

     convergence has been achieved in   7 iterations

     Writing output data file /home/elena/AEP_DFT/DFT/tmp/vib/Pb.save/

     init_run     :      1.43s CPU      1.50s WALL (       1 calls)
     electrons    :     25.22s CPU     26.15s WALL (       1 calls)

     Called by init_run:
     wfcinit      :      0.70s CPU      0.72s WALL (       1 calls)
     potinit      :      0.08s CPU      0.09s WALL (       1 calls)
     hinit0       :      0.52s CPU      0.52s WALL (       1 calls)

     Called by electrons:
     c_bands      :     19.73s CPU     19.91s WALL (       8 calls)
     sum_band     :      4.21s CPU      4.64s WALL (       8 calls)
     v_of_rho     :      0.53s CPU      0.58s WALL (       8 calls)
     newd         :      0.80s CPU      1.12s WALL (       8 calls)
     mix_rho      :      0.05s CPU      0.05s WALL (       8 calls)

     Called by c_bands:
     init_us_2    :      0.45s CPU      0.46s WALL (     799 calls)
     cegterg      :     18.99s CPU     19.16s WALL (     376 calls)

     Called by *egterg:
     cdiaghg      :      0.22s CPU      0.23s WALL (    1488 calls)
     h_psi        :     15.64s CPU     15.78s WALL (    1582 calls)
     s_psi        :      0.63s CPU      0.63s WALL (    1582 calls)
     g_psi        :      0.06s CPU      0.06s WALL (    1159 calls)

     Called by h_psi:
     h_psi:calbec :      0.74s CPU      0.75s WALL (    1582 calls)
     vloc_psi     :     14.21s CPU     14.34s WALL (    1582 calls)
     add_vuspsi   :      0.62s CPU      0.63s WALL (    1582 calls)

     General routines
     calbec       :      0.99s CPU      1.00s WALL (    1958 calls)
     fft          :      0.25s CPU      0.26s WALL (     103 calls)
     ffts         :      0.02s CPU      0.02s WALL (      16 calls)
     fftw         :     14.84s CPU     14.99s WALL (   27128 calls)
     interpolate  :      0.04s CPU      0.04s WALL (       8 calls)


     PWSCF        :     26.90s CPU     27.92s WALL


   This run was terminated on:  11:19:21   2Jul2021            

=------------------------------------------------------------------------------=
   JOB DONE.
=------------------------------------------------------------------------------=
