
     Program PHONON v.6.7MaX starts on  2Jul2021 at 12:32:41 

     This program is part of the open-source Quantum ESPRESSO suite
     for quantum simulation of materials; please cite
         "P. Giannozzi et al., J. Phys.:Condens. Matter 21 395502 (2009);
         "P. Giannozzi et al., J. Phys.:Condens. Matter 29 465901 (2017);
          URL http://www.quantum-espresso.org", 
     in publications or presentations arising from this work. More details at
     http://www.quantum-espresso.org/quote

     Serial version
     Waiting for input...
     Reading input from standard input

     Reading xml data from directory:

     /home/elena/AEP_DFT/DFT/tmp/vib/Pb.save/
     file Pb.pbe-dn-rrkjus_psl.1.0.0.UPF: wavefunction(s)  6S 5D renormalized

     IMPORTANT: XC functional enforced from input :
     Exchange-correlation= PBE
                           (   1   4   3   4   0   0   0)
     Any further DFT definition will be discarded
     Please, verify this is what you really want


     G-vector sticks info
     --------------------
     sticks:   dense  smooth     PW     G-vecs:    dense   smooth      PW
     Sum        1639     823    253                43895    15593    2685

     Reading collected, re-writing distributed wavefunctions

     Saving dvscf to file. Distribute only q points, not irreducible represetations.

     Calculation of q =    0.0000000   0.0000000   0.0000000

     ABC                                                                        

     bravais-lattice index     =            2
     lattice parameter (alat)  =       9.2226  a.u.
     unit-cell volume          =     196.1075 (a.u.)^3
     number of atoms/cell      =            1
     number of atomic types    =            1
     kinetic-energy cut-off    =      70.0000  Ry
     charge density cut-off    =     560.0000  Ry
     convergence threshold     =      1.0E-12
     beta                      =       0.7000
     number of iterations used =            4
     Exchange-correlation= PBE
                           (   1   4   3   4   0   0   0)


     celldm(1)=    9.22256  celldm(2)=    0.00000  celldm(3)=    0.00000
     celldm(4)=    0.00000  celldm(5)=    0.00000  celldm(6)=    0.00000

     crystal axes: (cart. coord. in units of alat)
               a(1) = ( -0.5000  0.0000  0.5000 )  
               a(2) = (  0.0000  0.5000  0.5000 )  
               a(3) = ( -0.5000  0.5000  0.0000 )  

     reciprocal axes: (cart. coord. in units 2 pi/alat)
               b(1) = ( -1.0000 -1.0000  1.0000 )  
               b(2) = (  1.0000  1.0000  1.0000 )  
               b(3) = ( -1.0000  1.0000 -1.0000 )  


     Atoms inside the unit cell: 

     Cartesian axes

     site n.  atom      mass           positions (alat units)
        1     Pb 207.2000   tau(    1) = (    0.00000    0.00000    0.00000  )

     Computing dynamical matrix for 
                    q = (   0.0000000   0.0000000   0.0000000 )

     49 Sym.Ops. (with q -> -q+G )


     G cutoff = 1206.5105  (  43895 G-vectors)     FFT grid: ( 50, 50, 50)
     G cutoff =  603.2553  (  15593 G-vectors)  smooth grid: ( 36, 36, 36)

     number of k points=   195  Methfessel-Paxton smearing, width (Ry)=  0.0200

     PseudoPot. # 1 for Pb read from file:
     /home/elena/qe-6.7/pseudo/Pb.pbe-dn-rrkjus_psl.1.0.0.UPF
     MD5 check sum: 1cf8f5e18580e6a90a35f98a53d336de
     Pseudo is Ultrasoft + core correction, Zval = 14.0
     Generated using &quot;atomic&quot; code by A. Dal Corso  v.6.3
     Using radial grid of 1281 points,  6 beta functions with: 
                l(1) =   0
                l(2) =   0
                l(3) =   1
                l(4) =   1
                l(5) =   2
                l(6) =   2
     Q(r) pseudized with 0 coefficients 


     Mode symmetry, O_h (m-3m)  point group:


     Atomic displacements:
     There are    1 irreducible representations

     Representation     1      3 modes -  To be done



     Alpha used in Ewald sum =   2.8000
     PHONON       :      9.07s CPU      9.19s WALL



     Representation #   1 modes #   1   2   3

     Self-consistent Calculation

     Pert. #  1: Fermi energy shift (Ry) =    -1.3786E-25    -3.9183E-38
     Pert. #  2: Fermi energy shift (Ry) =    -1.3786E-25     3.9183E-38
     Pert. #  3: Fermi energy shift (Ry) =     1.0340E-25     7.8366E-39

      iter #   1 total cpu time :    69.8 secs   av.it.:   8.8
      thresh= 1.000E-02 alpha_mix =  0.700 |ddv_scf|^2 =  1.033E-06

     Pert. #  1: Fermi energy shift (Ry) =     0.0000E+00     0.0000E+00
     Pert. #  2: Fermi energy shift (Ry) =    -8.6165E-27     0.0000E+00
     Pert. #  3: Fermi energy shift (Ry) =     5.1699E-26     0.0000E+00

      iter #   2 total cpu time :   153.1 secs   av.it.:  14.4
      thresh= 1.016E-04 alpha_mix =  0.700 |ddv_scf|^2 =  9.142E-08

     Pert. #  1: Fermi energy shift (Ry) =    -6.8932E-26     0.0000E+00
     Pert. #  2: Fermi energy shift (Ry) =     5.1699E-26     0.0000E+00
     Pert. #  3: Fermi energy shift (Ry) =     1.3786E-25     0.0000E+00

      iter #   3 total cpu time :   230.6 secs   av.it.:  14.1
      thresh= 3.024E-05 alpha_mix =  0.700 |ddv_scf|^2 =  4.435E-11

     Pert. #  1: Fermi energy shift (Ry) =    -1.3786E-25    -4.2091E-41
     Pert. #  2: Fermi energy shift (Ry) =     9.4781E-26     5.3571E-41
     Pert. #  3: Fermi energy shift (Ry) =    -3.4466E-26     7.6530E-42

      iter #   4 total cpu time :   309.8 secs   av.it.:  14.2
      thresh= 6.660E-07 alpha_mix =  0.700 |ddv_scf|^2 =  6.304E-13

     End of self-consistent calculation

     Convergence has been achieved 

     Number of q in the star =    1
     List of q in the star:
          1   0.000000000   0.000000000   0.000000000

     Diagonalizing the dynamical matrix

     q = (    0.000000000   0.000000000   0.000000000 ) 

 **************************************************************************
     freq (    1) =       0.560309 [THz] =      18.689910 [cm-1]
     freq (    2) =       0.560309 [THz] =      18.689910 [cm-1]
     freq (    3) =       0.560309 [THz] =      18.689910 [cm-1]
 **************************************************************************

     Mode symmetry, O_h (m-3m)  point group:

     freq (   1-   3) =         18.7  [cm-1]   --> T_1u G_15  G_4- I  

     PHONON       :   5m 8.93s CPU   5m11.30s WALL

     INITIALIZATION: 
     phq_setup    :      0.13s CPU      0.15s WALL (       1 calls)
     phq_init     :      8.10s CPU      8.14s WALL (       1 calls)

     phq_init     :      8.10s CPU      8.14s WALL (       1 calls)
     set_drhoc    :      1.30s CPU      1.30s WALL (       3 calls)
     init_vloc    :      0.00s CPU      0.00s WALL (       1 calls)
     init_us_1    :      0.38s CPU      0.38s WALL (       1 calls)
     newd         :      0.08s CPU      0.11s WALL (       1 calls)
     dvanqq       :      0.63s CPU      0.63s WALL (       1 calls)
     drho         :      4.53s CPU      4.54s WALL (       1 calls)

     DYNAMICAL MATRIX:
     dynmat0      :      1.72s CPU      1.73s WALL (       1 calls)
     phqscf       :    299.85s CPU    302.06s WALL (       1 calls)
     dynmatrix    :      0.00s CPU      0.00s WALL (       1 calls)

     phqscf       :    299.85s CPU    302.06s WALL (       1 calls)
     solve_linter :    298.59s CPU    300.75s WALL (       1 calls)
     drhodv       :      1.26s CPU      1.29s WALL (       1 calls)

     dynmat0      :      1.72s CPU      1.73s WALL (       1 calls)
     dynmat_us    :      0.77s CPU      0.79s WALL (       1 calls)
     d2ionq       :      0.00s CPU      0.00s WALL (       1 calls)
     dynmatcc     :      0.94s CPU      0.94s WALL (       1 calls)

     dynmat_us    :      0.77s CPU      0.79s WALL (       1 calls)
     addusdynmat  :      0.00s CPU      0.00s WALL (       1 calls)

     phqscf       :    299.85s CPU    302.06s WALL (       1 calls)
     solve_linter :    298.59s CPU    300.75s WALL (       1 calls)

     solve_linter :    298.59s CPU    300.75s WALL (       1 calls)
     dvqpsi_us    :      7.40s CPU      7.44s WALL (     585 calls)
     ortho        :      2.96s CPU      3.01s WALL (    2340 calls)
     cgsolve      :    252.51s CPU    253.84s WALL (    2340 calls)
     incdrhoscf   :     17.27s CPU     17.59s WALL (    2340 calls)
     addusddens   :      0.78s CPU      0.80s WALL (       5 calls)
     vpsifft      :     11.01s CPU     11.17s WALL (    1755 calls)
     dv_of_drho   :      0.45s CPU      0.47s WALL (      12 calls)
     mix_pot      :      0.03s CPU      0.08s WALL (       4 calls)
     ef_shift     :      0.06s CPU      0.13s WALL (       5 calls)
     localdos     :      1.39s CPU      1.40s WALL (       1 calls)
     symdvscf     :      1.59s CPU      1.59s WALL (       4 calls)
     newdq        :      1.14s CPU      1.17s WALL (       4 calls)
     adddvscf     :      0.84s CPU      0.85s WALL (    1755 calls)
     drhodvus     :      0.00s CPU      0.00s WALL (       1 calls)

     dvqpsi_us    :      7.40s CPU      7.44s WALL (     585 calls)
     dvqpsi_us_on :      1.20s CPU      1.20s WALL (     585 calls)

     cgsolve      :    252.51s CPU    253.84s WALL (    2340 calls)
     ch_psi       :    246.27s CPU    247.56s WALL (   36484 calls)

     ch_psi       :    246.27s CPU    247.56s WALL (   36484 calls)
     h_psi        :    210.50s CPU    211.64s WALL (   36484 calls)
     last         :     26.85s CPU     26.97s WALL (   36484 calls)

     h_psi        :    210.50s CPU    211.64s WALL (   36484 calls)
     add_vuspsi   :      8.05s CPU      8.08s WALL (   36484 calls)

     incdrhoscf   :     17.27s CPU     17.59s WALL (    2340 calls)
     addusdbec    :      1.48s CPU      1.49s WALL (    2925 calls)

     drhodvus     :      0.00s CPU      0.00s WALL (       1 calls)

      General routines
     calbec       :     24.20s CPU     24.36s WALL (   82718 calls)
     fft          :      0.52s CPU      0.53s WALL (     286 calls)
     ffts         :      1.45s CPU      1.45s WALL (    2012 calls)
     fftw         :    204.34s CPU    205.78s WALL (  522821 calls)
     davcio       :      0.76s CPU      0.90s WALL (   10177 calls)
     write_rec    :      0.00s CPU      0.03s WALL (       5 calls)


     PHONON       :   5m 8.93s CPU   5m11.30s WALL


   This run was terminated on:  12:37:53   2Jul2021            

=------------------------------------------------------------------------------=
   JOB DONE.
=------------------------------------------------------------------------------=
