
     Program PWSCF v.6.7MaX starts on  2Jul2021 at 10:43:37 

     This program is part of the open-source Quantum ESPRESSO suite
     for quantum simulation of materials; please cite
         "P. Giannozzi et al., J. Phys.:Condens. Matter 21 395502 (2009);
         "P. Giannozzi et al., J. Phys.:Condens. Matter 29 465901 (2017);
          URL http://www.quantum-espresso.org", 
     in publications or presentations arising from this work. More details at
     http://www.quantum-espresso.org/quote

     Serial version
     Waiting for input...
     Reading input from standard input

     Current dimensions of program PWSCF are:
     Max number of different atomic species (ntypx) = 10
     Max number of k-points (npk) =  40000
     Max angular momentum in pseudopotentials (lmaxx) =  3
     file Pb.pbe-dn-rrkjus_psl.1.0.0.UPF: wavefunction(s)  6S 5D renormalized

     G-vector sticks info
     --------------------
     sticks:   dense  smooth     PW     G-vecs:    dense   smooth      PW
     Sum        1639     823    253                43895    15593    2685


     Title: 
     Lead                                                                       


     bravais-lattice index     =            2
     lattice parameter (alat)  =       9.2226  a.u.
     unit-cell volume          =     196.1075 (a.u.)^3
     number of atoms/cell      =            1
     number of atomic types    =            1
     number of electrons       =        14.00
     number of Kohn-Sham states=           11
     kinetic-energy cutoff     =      70.0000  Ry
     charge density cutoff     =     560.0000  Ry
     scf convergence threshold =      1.0E-09
     mixing beta               =       0.7000
     number of iterations used =            8  plain     mixing
     Exchange-correlation= PBE
                           (   1   4   3   4   0   0   0)

     celldm(1)=   9.222558  celldm(2)=   0.000000  celldm(3)=   0.000000
     celldm(4)=   0.000000  celldm(5)=   0.000000  celldm(6)=   0.000000

     crystal axes: (cart. coord. in units of alat)
               a(1) = (  -0.500000   0.000000   0.500000 )  
               a(2) = (   0.000000   0.500000   0.500000 )  
               a(3) = (  -0.500000   0.500000   0.000000 )  

     reciprocal axes: (cart. coord. in units 2 pi/alat)
               b(1) = ( -1.000000 -1.000000  1.000000 )  
               b(2) = (  1.000000  1.000000  1.000000 )  
               b(3) = ( -1.000000  1.000000 -1.000000 )  


     PseudoPot. # 1 for Pb read from file:
     /home/elena/qe-6.7/pseudo/Pb.pbe-dn-rrkjus_psl.1.0.0.UPF
     MD5 check sum: 1cf8f5e18580e6a90a35f98a53d336de
     Pseudo is Ultrasoft + core correction, Zval = 14.0
     Generated using &quot;atomic&quot; code by A. Dal Corso  v.6.3
     Using radial grid of 1281 points,  6 beta functions with: 
                l(1) =   0
                l(2) =   0
                l(3) =   1
                l(4) =   1
                l(5) =   2
                l(6) =   2
     Q(r) pseudized with 0 coefficients 


     atomic species   valence    mass     pseudopotential
        Pb            14.00   207.20000     Pb( 1.00)

     48 Sym. Ops., with inversion, found



   Cartesian axes

     site n.     atom                  positions (alat units)
         1           Pb  tau(   1) = (   0.0000000   0.0000000   0.0000000  )

     number of k points=   195  Methfessel-Paxton smearing, width (Ry)=  0.0100

     Number of k-points >= 100: set verbosity='high' to print them.

     Dense  grid:    43895 G-vectors     FFT dimensions: (  50,  50,  50)

     Smooth grid:    15593 G-vectors     FFT dimensions: (  36,  36,  36)

     Estimated max dynamical RAM per process >     218.12 MB

     Initial potential from superposition of free atoms

     starting charge   13.99765, renormalised to   14.00000
     Starting wfcs are    9 randomized atomic wfcs +    2 random wfcs

     total cpu time spent up to now is        3.9 secs

     Self-consistent Calculation

     iteration #  1     ecut=    70.00 Ry     beta= 0.70
     Davidson diagonalization with overlap
     ethr =  1.00E-02,  avg # of iterations =  4.6

     Threshold (ethr) on eigenvalues was too large:
     Diagonalizing with lowered threshold

     Davidson diagonalization with overlap
     c_bands:  1 eigenvalues not converged
     c_bands:  1 eigenvalues not converged
     ethr =  1.68E-05,  avg # of iterations =  6.4

     total cpu time spent up to now is       25.9 secs

     total energy              =    -135.43462311 Ry
     estimated scf accuracy    <       0.00237039 Ry

     iteration #  2     ecut=    70.00 Ry     beta= 0.70
     Davidson diagonalization with overlap
     ethr =  1.69E-05,  avg # of iterations =  2.0

     total cpu time spent up to now is       35.7 secs

     total energy              =    -135.43512198 Ry
     estimated scf accuracy    <       0.00018836 Ry

     iteration #  3     ecut=    70.00 Ry     beta= 0.70
     Davidson diagonalization with overlap
     c_bands:  1 eigenvalues not converged
     ethr =  1.35E-06,  avg # of iterations =  2.7

     total cpu time spent up to now is       45.0 secs

     total energy              =    -135.43515162 Ry
     estimated scf accuracy    <       0.00000802 Ry

     iteration #  4     ecut=    70.00 Ry     beta= 0.70
     Davidson diagonalization with overlap
     ethr =  5.73E-08,  avg # of iterations =  2.0

     total cpu time spent up to now is       54.4 secs

     total energy              =    -135.43515251 Ry
     estimated scf accuracy    <       0.00000059 Ry

     iteration #  5     ecut=    70.00 Ry     beta= 0.70
     Davidson diagonalization with overlap
     ethr =  4.22E-09,  avg # of iterations =  2.1

     total cpu time spent up to now is       64.2 secs

     total energy              =    -135.43515270 Ry
     estimated scf accuracy    <       0.00000010 Ry

     iteration #  6     ecut=    70.00 Ry     beta= 0.70
     Davidson diagonalization with overlap
     ethr =  6.82E-10,  avg # of iterations =  2.0

     total cpu time spent up to now is       73.2 secs

     End of self-consistent calculation

     Number of k-points >= 100: set verbosity='high' to print the bands.

     the Fermi energy is    11.9287 ev

!    total energy              =    -135.43515272 Ry
     estimated scf accuracy    <          9.7E-10 Ry
     smearing contrib. (-TS)   =      -0.00009408 Ry
     internal energy E=F+TS    =    -135.43505864 Ry

     The total energy is F=E-TS. E is the sum of the following terms:
     one-electron contribution =     -31.47475429 Ry
     hartree contribution      =      26.10327736 Ry
     xc contribution           =     -32.62500454 Ry
     ewald contribution        =     -97.43857717 Ry

     convergence has been achieved in   6 iterations

     Writing output data file /home/elena/AEP_DFT/DFT/tmp/Pb.save/

     init_run     :      3.63s CPU      3.71s WALL (       1 calls)
     electrons    :     68.51s CPU     69.34s WALL (       1 calls)

     Called by init_run:
     wfcinit      :      2.90s CPU      2.92s WALL (       1 calls)
     potinit      :      0.08s CPU      0.08s WALL (       1 calls)
     hinit0       :      0.52s CPU      0.52s WALL (       1 calls)

     Called by electrons:
     c_bands      :     57.63s CPU     57.83s WALL (       7 calls)
     sum_band     :     10.02s CPU     10.37s WALL (       7 calls)
     v_of_rho     :      0.40s CPU      0.43s WALL (       7 calls)
     newd         :      0.53s CPU      0.83s WALL (       7 calls)
     mix_rho      :      0.03s CPU      0.03s WALL (       7 calls)

     Called by c_bands:
     init_us_2    :      1.46s CPU      1.47s WALL (    2925 calls)
     cegterg      :     55.40s CPU     55.58s WALL (    1365 calls)

     Called by *egterg:
     cdiaghg      :      0.69s CPU      0.70s WALL (    5403 calls)
     h_psi        :     46.16s CPU     46.32s WALL (    5793 calls)
     s_psi        :      1.87s CPU      1.87s WALL (    5793 calls)
     g_psi        :      0.20s CPU      0.20s WALL (    4233 calls)

     Called by h_psi:
     h_psi:calbec :      2.17s CPU      2.18s WALL (    5793 calls)
     vloc_psi     :     41.95s CPU     42.10s WALL (    5793 calls)
     add_vuspsi   :      1.88s CPU      1.89s WALL (    5793 calls)

     General routines
     calbec       :      2.91s CPU      2.92s WALL (    7158 calls)
     fft          :      0.18s CPU      0.18s WALL (      90 calls)
     ffts         :      0.02s CPU      0.02s WALL (      14 calls)
     fftw         :     45.19s CPU     45.36s WALL (   98953 calls)
     interpolate  :      0.03s CPU      0.03s WALL (       7 calls)


     PWSCF        :   1m12.35s CPU   1m13.30s WALL


   This run was terminated on:  10:44:50   2Jul2021            

=------------------------------------------------------------------------------=
   JOB DONE.
=------------------------------------------------------------------------------=
