
     Program PWSCF v.6.7MaX starts on  2Jul2021 at 11:30:24 

     This program is part of the open-source Quantum ESPRESSO suite
     for quantum simulation of materials; please cite
         "P. Giannozzi et al., J. Phys.:Condens. Matter 21 395502 (2009);
         "P. Giannozzi et al., J. Phys.:Condens. Matter 29 465901 (2017);
          URL http://www.quantum-espresso.org", 
     in publications or presentations arising from this work. More details at
     http://www.quantum-espresso.org/quote

     Serial version
     Waiting for input...
     Reading input from standard input

     Current dimensions of program PWSCF are:
     Max number of different atomic species (ntypx) = 10
     Max number of k-points (npk) =  40000
     Max angular momentum in pseudopotentials (lmaxx) =  3
     file Pb.pbe-dn-rrkjus_psl.1.0.0.UPF: wavefunction(s)  6S 5D renormalized

     G-vector sticks info
     --------------------
     sticks:   dense  smooth     PW     G-vecs:    dense   smooth      PW
     Sum        1639     823    253                43895    15593    2685


     Title: 
     Lead                                                                       


     bravais-lattice index     =            2
     lattice parameter (alat)  =       9.2226  a.u.
     unit-cell volume          =     196.1075 (a.u.)^3
     number of atoms/cell      =            1
     number of atomic types    =            1
     number of electrons       =        14.00
     number of Kohn-Sham states=           11
     kinetic-energy cutoff     =      70.0000  Ry
     charge density cutoff     =     560.0000  Ry
     scf convergence threshold =      1.0E-09
     mixing beta               =       0.7000
     number of iterations used =            8  plain     mixing
     Exchange-correlation= PBE
                           (   1   4   3   4   0   0   0)

     celldm(1)=   9.222558  celldm(2)=   0.000000  celldm(3)=   0.000000
     celldm(4)=   0.000000  celldm(5)=   0.000000  celldm(6)=   0.000000

     crystal axes: (cart. coord. in units of alat)
               a(1) = (  -0.500000   0.000000   0.500000 )  
               a(2) = (   0.000000   0.500000   0.500000 )  
               a(3) = (  -0.500000   0.500000   0.000000 )  

     reciprocal axes: (cart. coord. in units 2 pi/alat)
               b(1) = ( -1.000000 -1.000000  1.000000 )  
               b(2) = (  1.000000  1.000000  1.000000 )  
               b(3) = ( -1.000000  1.000000 -1.000000 )  


     PseudoPot. # 1 for Pb read from file:
     /home/elena/qe-6.7/pseudo/Pb.pbe-dn-rrkjus_psl.1.0.0.UPF
     MD5 check sum: 1cf8f5e18580e6a90a35f98a53d336de
     Pseudo is Ultrasoft + core correction, Zval = 14.0
     Generated using &quot;atomic&quot; code by A. Dal Corso  v.6.3
     Using radial grid of 1281 points,  6 beta functions with: 
                l(1) =   0
                l(2) =   0
                l(3) =   1
                l(4) =   1
                l(5) =   2
                l(6) =   2
     Q(r) pseudized with 0 coefficients 


     atomic species   valence    mass     pseudopotential
        Pb            14.00   207.20000     Pb( 1.00)

     48 Sym. Ops., with inversion, found



   Cartesian axes

     site n.     atom                  positions (alat units)
         1           Pb  tau(   1) = (   0.0000000   0.0000000   0.0000000  )

     number of k points=    72  Methfessel-Paxton smearing, width (Ry)=  0.0100
                       cart. coord. in units 2pi/alat
        k(    1) = (   0.0000000   0.0000000   0.0000000), wk =   0.0011574
        k(    2) = (  -0.0833333   0.0833333  -0.0833333), wk =   0.0092593
        k(    3) = (  -0.1666667   0.1666667  -0.1666667), wk =   0.0092593
        k(    4) = (  -0.2500000   0.2500000  -0.2500000), wk =   0.0092593
        k(    5) = (  -0.3333333   0.3333333  -0.3333333), wk =   0.0092593
        k(    6) = (  -0.4166667   0.4166667  -0.4166667), wk =   0.0092593
        k(    7) = (   0.5000000  -0.5000000   0.5000000), wk =   0.0046296
        k(    8) = (   0.0000000   0.1666667   0.0000000), wk =   0.0069444
        k(    9) = (  -0.0833333   0.2500000  -0.0833333), wk =   0.0277778
        k(   10) = (  -0.1666667   0.3333333  -0.1666667), wk =   0.0277778
        k(   11) = (  -0.2500000   0.4166667  -0.2500000), wk =   0.0277778
        k(   12) = (  -0.3333333   0.5000000  -0.3333333), wk =   0.0277778
        k(   13) = (   0.5833333  -0.4166667   0.5833333), wk =   0.0277778
        k(   14) = (   0.5000000  -0.3333333   0.5000000), wk =   0.0277778
        k(   15) = (   0.4166667  -0.2500000   0.4166667), wk =   0.0277778
        k(   16) = (   0.3333333  -0.1666667   0.3333333), wk =   0.0277778
        k(   17) = (   0.2500000  -0.0833333   0.2500000), wk =   0.0277778
        k(   18) = (   0.1666667  -0.0000000   0.1666667), wk =   0.0138889
        k(   19) = (   0.0000000   0.3333333   0.0000000), wk =   0.0069444
        k(   20) = (  -0.0833333   0.4166667  -0.0833333), wk =   0.0277778
        k(   21) = (  -0.1666667   0.5000000  -0.1666667), wk =   0.0277778
        k(   22) = (  -0.2500000   0.5833333  -0.2500000), wk =   0.0277778
        k(   23) = (   0.6666667  -0.3333333   0.6666667), wk =   0.0277778
        k(   24) = (   0.5833333  -0.2500000   0.5833333), wk =   0.0277778
        k(   25) = (   0.5000000  -0.1666667   0.5000000), wk =   0.0277778
        k(   26) = (   0.4166667  -0.0833333   0.4166667), wk =   0.0277778
        k(   27) = (   0.3333333   0.0000000   0.3333333), wk =   0.0138889
        k(   28) = (   0.0000000   0.5000000   0.0000000), wk =   0.0069444
        k(   29) = (  -0.0833333   0.5833333  -0.0833333), wk =   0.0277778
        k(   30) = (  -0.1666667   0.6666667  -0.1666667), wk =   0.0277778
        k(   31) = (   0.7500000  -0.2500000   0.7500000), wk =   0.0277778
        k(   32) = (   0.6666667  -0.1666667   0.6666667), wk =   0.0277778
        k(   33) = (   0.5833333  -0.0833333   0.5833333), wk =   0.0277778
        k(   34) = (   0.5000000   0.0000000   0.5000000), wk =   0.0138889
        k(   35) = (   0.0000000   0.6666667   0.0000000), wk =   0.0069444
        k(   36) = (  -0.0833333   0.7500000  -0.0833333), wk =   0.0277778
        k(   37) = (   0.8333333  -0.1666667   0.8333333), wk =   0.0277778
        k(   38) = (   0.7500000  -0.0833333   0.7500000), wk =   0.0277778
        k(   39) = (   0.6666667  -0.0000000   0.6666667), wk =   0.0138889
        k(   40) = (   0.0000000   0.8333333   0.0000000), wk =   0.0069444
        k(   41) = (   0.9166667  -0.0833333   0.9166667), wk =   0.0277778
        k(   42) = (   0.8333333   0.0000000   0.8333333), wk =   0.0138889
        k(   43) = (   0.0000000  -1.0000000   0.0000000), wk =   0.0034722
        k(   44) = (  -0.1666667   0.3333333   0.0000000), wk =   0.0277778
        k(   45) = (  -0.2500000   0.4166667  -0.0833333), wk =   0.0555556
        k(   46) = (  -0.3333333   0.5000000  -0.1666667), wk =   0.0555556
        k(   47) = (   0.5833333  -0.4166667   0.7500000), wk =   0.0555556
        k(   48) = (   0.5000000  -0.3333333   0.6666667), wk =   0.0277778
        k(   49) = (  -0.1666667   0.5000000   0.0000000), wk =   0.0277778
        k(   50) = (  -0.2500000   0.5833333  -0.0833333), wk =   0.0555556
        k(   51) = (   0.6666667  -0.3333333   0.8333333), wk =   0.0555556
        k(   52) = (   0.5833333  -0.2500000   0.7500000), wk =   0.0555556
        k(   53) = (   0.5000000  -0.1666667   0.6666667), wk =   0.0555556
        k(   54) = (   0.4166667  -0.0833333   0.5833333), wk =   0.0555556
        k(   55) = (   0.3333333   0.0000000   0.5000000), wk =   0.0277778
        k(   56) = (  -0.1666667   0.6666667  -0.0000000), wk =   0.0277778
        k(   57) = (   0.7500000  -0.2500000   0.9166667), wk =   0.0555556
        k(   58) = (   0.6666667  -0.1666667   0.8333333), wk =   0.0555556
        k(   59) = (   0.5833333  -0.0833333   0.7500000), wk =   0.0555556
        k(   60) = (   0.5000000   0.0000000   0.6666667), wk =   0.0277778
        k(   61) = (   0.8333333  -0.1666667   1.0000000), wk =   0.0277778
        k(   62) = (   0.7500000  -0.0833333   0.9166667), wk =   0.0555556
        k(   63) = (   0.6666667   0.0000000   0.8333333), wk =   0.0277778
        k(   64) = (  -0.1666667  -1.0000000  -0.0000000), wk =   0.0138889
        k(   65) = (   0.6666667  -0.3333333   1.0000000), wk =   0.0277778
        k(   66) = (   0.5833333  -0.2500000   0.9166667), wk =   0.0555556
        k(   67) = (   0.5000000  -0.1666667   0.8333333), wk =   0.0277778
        k(   68) = (   0.6666667  -0.1666667   1.0000000), wk =   0.0277778
        k(   69) = (   0.5833333  -0.0833333   0.9166667), wk =   0.0555556
        k(   70) = (   0.5000000   0.0000000   0.8333333), wk =   0.0277778
        k(   71) = (  -0.3333333  -1.0000000   0.0000000), wk =   0.0138889
        k(   72) = (  -0.5000000  -1.0000000   0.0000000), wk =   0.0069444

     Dense  grid:    43895 G-vectors     FFT dimensions: (  50,  50,  50)

     Smooth grid:    15593 G-vectors     FFT dimensions: (  36,  36,  36)

     Estimated max dynamical RAM per process >     178.07 MB

     Initial potential from superposition of free atoms

     starting charge   13.99765, renormalised to   14.00000
     Starting wfcs are    9 randomized atomic wfcs +    2 random wfcs

     total cpu time spent up to now is        1.9 secs

     Self-consistent Calculation

     iteration #  1     ecut=    70.00 Ry     beta= 0.70
     Davidson diagonalization with overlap
     ethr =  1.00E-02,  avg # of iterations =  4.4

     Threshold (ethr) on eigenvalues was too large:
     Diagonalizing with lowered threshold

     Davidson diagonalization with overlap
     c_bands:  1 eigenvalues not converged
     ethr =  1.63E-05,  avg # of iterations =  6.7

     total cpu time spent up to now is       10.5 secs

     total energy              =    -135.43364362 Ry
     estimated scf accuracy    <       0.00230829 Ry

     iteration #  2     ecut=    70.00 Ry     beta= 0.70
     Davidson diagonalization with overlap
     ethr =  1.65E-05,  avg # of iterations =  2.2

     total cpu time spent up to now is       13.9 secs

     total energy              =    -135.43413358 Ry
     estimated scf accuracy    <       0.00018364 Ry

     iteration #  3     ecut=    70.00 Ry     beta= 0.70
     Davidson diagonalization with overlap
     ethr =  1.31E-06,  avg # of iterations =  2.5

     total cpu time spent up to now is       17.5 secs

     total energy              =    -135.43416273 Ry
     estimated scf accuracy    <       0.00000773 Ry

     iteration #  4     ecut=    70.00 Ry     beta= 0.70
     Davidson diagonalization with overlap
     ethr =  5.52E-08,  avg # of iterations =  2.0

     total cpu time spent up to now is       20.9 secs

     total energy              =    -135.43416359 Ry
     estimated scf accuracy    <       0.00000059 Ry

     iteration #  5     ecut=    70.00 Ry     beta= 0.70
     Davidson diagonalization with overlap
     ethr =  4.20E-09,  avg # of iterations =  2.3

     total cpu time spent up to now is       24.5 secs

     total energy              =    -135.43416378 Ry
     estimated scf accuracy    <       0.00000010 Ry

     iteration #  6     ecut=    70.00 Ry     beta= 0.70
     Davidson diagonalization with overlap
     ethr =  7.06E-10,  avg # of iterations =  1.9

     total cpu time spent up to now is       27.4 secs

     total energy              =    -135.43416379 Ry
     estimated scf accuracy    <          2.1E-09 Ry

     iteration #  7     ecut=    70.00 Ry     beta= 0.70
     Davidson diagonalization with overlap
     ethr =  1.52E-11,  avg # of iterations =  2.7

     total cpu time spent up to now is       30.8 secs

     End of self-consistent calculation

          k = 0.0000 0.0000 0.0000 (  1917 PWs)   bands (ev):

    -5.2266  -5.2266  -5.2266  -5.0676  -5.0676  -0.1794  19.6458  19.6458
    19.6458  21.9785  23.7543

          k =-0.0833 0.0833-0.0833 (  1947 PWs)   bands (ev):

    -5.2273  -5.2155  -5.2155  -5.0685  -5.0685  -0.0397  18.0471  19.4670
    19.4670  21.6805  24.3744

          k =-0.1667 0.1667-0.1667 (  1940 PWs)   bands (ev):

    -5.2308  -5.1934  -5.1934  -5.0616  -5.0616   0.3807  15.3554  19.0409
    19.0409  21.3630  24.9138

          k =-0.2500 0.2500-0.2500 (  1949 PWs)   bands (ev):

    -5.2392  -5.1867  -5.1867  -5.0281  -5.0281   1.0787  12.7016  18.5486
    18.5486  21.1658  23.7915

          k =-0.3333 0.3333-0.3333 (  1940 PWs)   bands (ev):

    -5.2514  -5.1974  -5.1974  -4.9758  -4.9758   2.0250  10.3078  18.1157
    18.1157  21.1171  22.8205

          k =-0.4167 0.4167-0.4167 (  1937 PWs)   bands (ev):

    -5.2624  -5.2100  -5.2100  -4.9323  -4.9323   3.0894   8.3609  17.8229
    17.8229  21.2216  22.1019

          k = 0.5000-0.5000 0.5000 (  1946 PWs)   bands (ev):

    -5.2670  -5.2151  -5.2151  -4.9157  -4.9157   3.7037   7.4505  17.7195
    17.7195  21.3872  21.7319

          k = 0.0000 0.1667 0.0000 (  1941 PWs)   bands (ev):

    -5.2394  -5.2048  -5.2048  -5.0809  -5.0584   0.0068  18.5540  18.8550
    18.8550  21.3729  24.5260

          k =-0.0833 0.2500-0.0833 (  1944 PWs)   bands (ev):

    -5.2470  -5.1817  -5.1793  -5.0912  -5.0460   0.3335  16.2640  18.2042
    18.7499  21.3989  23.4617

          k =-0.1667 0.3333-0.1667 (  1938 PWs)   bands (ev):

    -5.2490  -5.1742  -5.1649  -5.0761  -5.0147   0.9395  13.6231  17.6607
    18.2773  21.4480  23.0798

          k =-0.2500 0.4167-0.2500 (  1941 PWs)   bands (ev):

    -5.2520  -5.1888  -5.1714  -5.0295  -4.9668   1.8063  11.1611  17.3000
    17.6685  20.9596  23.2398

          k =-0.3333 0.5000-0.3333 (  1939 PWs)   bands (ev):

    -5.2558  -5.2059  -5.1852  -4.9776  -4.9271   2.8515   9.0595  17.0749
    17.1676  20.6442  23.0950

          k = 0.5833-0.4167 0.5833 (  1941 PWs)   bands (ev):

    -5.2563  -5.2158  -5.1952  -4.9408  -4.9145   3.7167   7.7103  16.6087
    17.2887  20.6192  22.7881

          k = 0.5000-0.3333 0.5000 (  1939 PWs)   bands (ev):

    -5.2517  -5.2145  -5.1959  -4.9356  -4.9312   3.4978   8.0282  16.3468
    17.6624  20.8660  22.5354

          k = 0.4167-0.2500 0.4167 (  1936 PWs)   bands (ev):

    -5.2442  -5.2027  -5.1868  -4.9845  -4.9504   2.4935   9.7112  16.3242
    18.2488  21.3388  22.4536

          k = 0.3333-0.1667 0.3333 (  1938 PWs)   bands (ev):

    -5.2376  -5.1873  -5.1739  -5.0440  -4.9893   1.4907  11.9517  16.5472
    18.9457  21.8380  22.7333

          k = 0.2500-0.0833 0.2500 (  1942 PWs)   bands (ev):

    -5.2342  -5.1810  -5.1762  -5.0822  -5.0298   0.7070  14.4660  17.0211
    19.5520  22.0196  23.6064

          k = 0.1667-0.0000 0.1667 (  1945 PWs)   bands (ev):

    -5.2321  -5.2014  -5.1940  -5.0808  -5.0552   0.1936  16.8476  17.9309
    19.7729  21.8618  24.8636

          k = 0.0000 0.3333 0.0000 (  1960 PWs)   bands (ev):

    -5.2742  -5.1439  -5.1439  -5.1204  -5.0332   0.5664  16.5964  17.3921
    17.3921  20.4344  21.9273

          k =-0.0833 0.4167-0.0833 (  1955 PWs)   bands (ev):

    -5.2870  -5.1522  -5.1153  -5.0988  -5.0068   1.0782  14.5129  16.7481
    16.9952  20.4400  21.1902

          k =-0.1667 0.5000-0.1667 (  1943 PWs)   bands (ev):

    -5.2852  -5.1743  -5.1143  -5.0609  -4.9608   1.8553  12.1383  16.2418
    16.3401  19.9400  22.4294

          k =-0.2500 0.5833-0.2500 (  1943 PWs)   bands (ev):

    -5.2777  -5.1846  -5.1272  -5.0278  -4.9219   2.8395  10.0016  15.4026
    16.2077  19.6447  24.1947

          k = 0.6667-0.3333 0.6667 (  1942 PWs)   bands (ev):

    -5.2681  -5.1868  -5.1404  -4.9986  -4.9113   3.8016   8.4142  14.6906
    16.3722  19.6444  24.6603

          k = 0.5833-0.2500 0.5833 (  1948 PWs)   bands (ev):

    -5.2526  -5.1896  -5.1471  -4.9772  -4.9356   3.9950   8.1450  14.2076
    16.8325  19.9120  24.2249

          k = 0.5000-0.1667 0.5000 (  1943 PWs)   bands (ev):

    -5.2307  -5.1970  -5.1439  -4.9891  -4.9690   3.1716   9.4353  14.0108
    17.5561  20.4394  23.9022

          k = 0.4167-0.0833 0.4167 (  1939 PWs)   bands (ev):

    -5.2154  -5.2009  -5.1315  -5.0570  -4.9767   2.1588  11.3987  14.1640
    18.4510  21.2289  23.6402

          k = 0.3333 0.0000 0.3333 (  1935 PWs)   bands (ev):

    -5.2273  -5.1846  -5.1337  -5.1006  -4.9987   1.3078  13.3394  14.9748
    19.2815  22.2759  23.0790

          k = 0.0000 0.5000 0.0000 (  1964 PWs)   bands (ev):

    -5.3214  -5.1806  -5.0581  -5.0581  -4.9984   1.4947  14.3587  16.0023
    16.0023  19.6545  19.7179

          k =-0.0833 0.5833-0.0833 (  1945 PWs)   bands (ev):

    -5.3332  -5.2081  -5.0399  -5.0200  -4.9599   2.1772  12.7176  15.1378
    15.5069  19.1215  20.1628

          k =-0.1667 0.6667-0.1667 (  1936 PWs)   bands (ev):

    -5.3236  -5.2143  -5.0501  -5.0045  -4.9181   3.0785  10.8743  13.9734
    15.3070  18.8771  21.7947

          k = 0.7500-0.2500 0.7500 (  1941 PWs)   bands (ev):

    -5.3059  -5.1885  -5.0648  -5.0126  -4.9063   4.0343   9.3305  12.9543
    15.4246  18.8848  23.8993

          k = 0.6667-0.1667 0.6667 (  1944 PWs)   bands (ev):

    -5.2852  -5.1451  -5.0769  -5.0330  -4.9307   4.5069   8.7142  12.2243
    15.8586  19.1241  26.1463

          k = 0.5833-0.0833 0.5833 (  1941 PWs)   bands (ev):

    -5.2585  -5.1363  -5.0833  -5.0277  -4.9841   3.9761   9.5278  11.8781
    16.5785  19.5939  25.8267

          k = 0.5000 0.0000 0.5000 (  1947 PWs)   bands (ev):

    -5.2288  -5.1735  -5.0894  -5.0443  -4.9943   3.0355  10.7954  12.3179
    17.5064  20.2989  25.1439

          k = 0.0000 0.6667 0.0000 (  1948 PWs)   bands (ev):

    -5.3682  -5.2466  -4.9690  -4.9690  -4.9633   2.7617  11.9488  14.9148
    14.9148  18.3325  19.1001

          k =-0.0833 0.7500-0.0833 (  1943 PWs)   bands (ev):

    -5.3732  -5.2661  -4.9757  -4.9437  -4.9155   3.5647  10.6965  13.8357
    14.6219  18.2496  19.6337

          k = 0.8333-0.1667 0.8333 (  1941 PWs)   bands (ev):

    -5.3526  -5.2527  -4.9898  -4.9535  -4.8990   4.4415   9.6626  12.3019
    14.6559  18.3272  21.3847

          k = 0.7500-0.0833 0.7500 (  1927 PWs)   bands (ev):

    -5.3241  -5.1963  -5.0068  -4.9959  -4.9187   4.9789   9.3328  10.9810
    15.0186  18.5471  23.6420

          k = 0.6667-0.0000 0.6667 (  1935 PWs)   bands (ev):

    -5.2924  -5.1141  -5.0599  -5.0327  -4.9587   4.7196   9.9768  10.2394
    15.6822  18.9634  26.1525

          k = 0.0000 0.8333 0.0000 (  1956 PWs)   bands (ev):

    -5.4023  -5.2981  -4.9376  -4.9018  -4.9018   4.2460   9.6798  14.2281
    14.2281  17.6098  18.7724

          k = 0.9167-0.0833 0.9167 (  1948 PWs)   bands (ev):

    -5.3962  -5.3014  -4.9411  -4.8980  -4.8864   4.9426   8.8948  13.2332
    14.1628  17.8493  19.3816

          k = 0.8333 0.0000 0.8333 (  1938 PWs)   bands (ev):

    -5.3634  -5.2676  -4.9610  -4.9336  -4.8984   5.2377   8.8976  11.7473
    14.4338  18.1561  21.2466

          k = 0.0000-1.0000 0.0000 (  1964 PWs)   bands (ev):

    -5.4148  -5.3174  -4.9282  -4.8769  -4.8769   5.2188   8.4300  13.9935
    13.9935  17.3871  18.6643

          k =-0.1667 0.3333 0.0000 (  1950 PWs)   bands (ev):

    -5.2564  -5.1648  -5.1468  -5.1054  -5.0232   0.7532  15.0352  16.4557
    18.7782  21.5310  22.3239

          k =-0.2500 0.4167-0.0833 (  1941 PWs)   bands (ev):

    -5.2537  -5.1745  -5.1325  -5.0834  -4.9873   1.4457  12.8583  15.5624
    18.2313  21.3622  22.7274

          k =-0.3333 0.5000-0.1667 (  1938 PWs)   bands (ev):

    -5.2473  -5.1950  -5.1428  -5.0323  -4.9508   2.3757  10.6065  15.1939
    17.4376  20.9193  23.2741

          k = 0.5833-0.4167 0.7500 (  1938 PWs)   bands (ev):

    -5.2415  -5.2144  -5.1513  -4.9879  -4.9275   3.4048   8.7466  15.0723
    16.7893  20.6787  22.9966

          k = 0.5000-0.3333 0.6667 (  1952 PWs)   bands (ev):

    -5.2366  -5.2253  -5.1544  -4.9689  -4.9213   3.9825   7.8879  15.0640
    16.5298  20.6030  22.8616

          k =-0.1667 0.5000 0.0000 (  1945 PWs)   bands (ev):

    -5.2980  -5.1759  -5.0923  -5.0605  -4.9784   1.6761  13.3402  15.1199
    16.7214  20.4621  20.7791

          k =-0.2500 0.5833-0.0833 (  1939 PWs)   bands (ev):

    -5.2887  -5.1927  -5.0952  -5.0254  -4.9459   2.5187  11.5082  14.2374
    15.9591  20.2301  22.1514

          k = 0.6667-0.3333 0.8333 (  1940 PWs)   bands (ev):

    -5.2728  -5.1928  -5.0994  -5.0161  -4.9221   3.5068   9.6889  13.7287
    15.3991  20.1581  23.9000

          k = 0.5833-0.2500 0.7500 (  1942 PWs)   bands (ev):

    -5.2581  -5.1881  -5.0925  -5.0233  -4.9200   4.2762   8.5316  13.2827
    15.3564  20.3004  23.9473

          k = 0.5000-0.1667 0.6667 (  1944 PWs)   bands (ev):

    -5.2396  -5.1937  -5.0933  -5.0205  -4.9422   4.0732   8.8417  12.9733
    15.7820  20.6476  23.6396

          k = 0.4167-0.0833 0.5833 (  1941 PWs)   bands (ev):

    -5.2164  -5.2110  -5.1056  -5.0218  -4.9678   3.1570  10.3147  12.9696
    16.5378  21.1603  23.4960

          k = 0.3333 0.0000 0.5000 (  1937 PWs)   bands (ev):

    -5.2369  -5.1922  -5.1091  -5.0637  -4.9724   2.2062  11.9263  13.6514
    17.4738  21.6474  22.9637

          k =-0.1667 0.6667-0.0000 (  1944 PWs)   bands (ev):

    -5.3402  -5.2323  -5.0311  -4.9705  -4.9389   2.9235  11.5905  14.0850
    14.8029  19.3565  20.1777

          k = 0.7500-0.2500 0.9167 (  1945 PWs)   bands (ev):

    -5.3213  -5.2325  -5.0419  -4.9620  -4.9165   3.8318  10.3150  12.9060
    14.3017  19.5568  21.6414

          k = 0.6667-0.1667 0.8333 (  1929 PWs)   bands (ev):

    -5.2966  -5.1948  -5.0564  -4.9971  -4.9093   4.6349   9.3432  11.8434
    14.3597  19.7340  23.7862

          k = 0.5833-0.0833 0.7500 (  1934 PWs)   bands (ev):

    -5.2723  -5.1395  -5.0773  -5.0363  -4.9324   4.7316   9.3714  11.1476
    14.8151  20.0960  25.4096

          k = 0.5000 0.0000 0.6667 (  1940 PWs)   bands (ev):

    -5.2443  -5.1553  -5.0908  -5.0173  -4.9751   4.0437  10.1179  11.2884
    15.5758  20.6363  25.0032

          k = 0.8333-0.1667 1.0000 (  1947 PWs)   bands (ev):

    -5.3711  -5.2792  -4.9736  -4.9180  -4.9023   4.3542   9.7384  13.4318
    13.6675  18.7633  19.8120

          k = 0.7500-0.0833 0.9167 (  1936 PWs)   bands (ev):

    -5.3407  -5.2598  -4.9878  -4.9531  -4.8892   5.0360   9.2275  11.9501
    13.6515  19.2378  21.3738

          k = 0.6667 0.0000 0.8333 (  1929 PWs)   bands (ev):

    -5.3061  -5.1976  -5.0274  -4.9999  -4.9052   5.1667   9.5752  10.6273
    14.0796  19.5957  23.6746

          k =-0.1667-1.0000-0.0000 (  1940 PWs)   bands (ev):

    -5.3823  -5.2970  -4.9453  -4.9170  -4.8768   5.2464   8.6648  13.2085
    13.3169  18.5751  19.6904

          k = 0.6667-0.3333 1.0000 (  1930 PWs)   bands (ev):

    -5.2626  -5.2093  -5.0977  -4.9737  -4.9587   3.3817  10.7929  12.6345
    15.0089  21.3571  22.3796

          k = 0.5833-0.2500 0.9167 (  1933 PWs)   bands (ev):

    -5.2352  -5.2054  -5.0976  -5.0017  -4.9298   4.2822   9.7167  11.9903
    14.2415  21.5683  23.5601

          k = 0.5000-0.1667 0.8333 (  1930 PWs)   bands (ev):

    -5.2340  -5.1885  -5.0837  -5.0371  -4.9145   4.7437   9.1128  11.8840
    13.9461  21.5759  23.5928

          k = 0.6667-0.1667 1.0000 (  1946 PWs)   bands (ev):

    -5.2836  -5.2365  -5.0572  -4.9675  -4.9034   4.6338   9.8584  11.9952
    13.1336  21.0742  21.9872

          k = 0.5833-0.0833 0.9167 (  1929 PWs)   bands (ev):

    -5.2499  -5.1979  -5.0925  -5.0079  -4.8899   5.1354   9.7626  11.0085
    12.8771  21.6307  23.8502

          k = 0.5000 0.0000 0.8333 (  1932 PWs)   bands (ev):

    -5.2339  -5.1587  -5.1312  -5.0178  -4.9047   4.9549  10.0575  10.6401
    13.3384  21.9601  24.5993

          k =-0.3333-1.0000 0.0000 (  1940 PWs)   bands (ev):

    -5.2914  -5.2486  -5.0235  -4.9875  -4.8768   5.3043   9.3477  11.7771
    12.4448  20.9646  21.8539

          k =-0.5000-1.0000 0.0000 (  1912 PWs)   bands (ev):

    -5.2169  -5.1612  -5.1612  -5.0160  -4.8766   5.3348  10.4186  10.4186
    12.1092  23.0943  24.4583

     the Fermi energy is    11.9236 ev

!    total energy              =    -135.43416379 Ry
     estimated scf accuracy    <          1.2E-10 Ry
     smearing contrib. (-TS)   =      -0.00023324 Ry
     internal energy E=F+TS    =    -135.43393055 Ry

     The total energy is F=E-TS. E is the sum of the following terms:
     one-electron contribution =     -31.47685502 Ry
     hartree contribution      =      26.10704706 Ry
     xc contribution           =     -32.62554542 Ry
     ewald contribution        =     -97.43857717 Ry

     convergence has been achieved in   7 iterations

     Writing output data file /home/elena/AEP_DFT/DFT/tmp/vib/Pb.save/

     init_run     :      1.68s CPU      1.74s WALL (       1 calls)
     electrons    :     28.06s CPU     28.90s WALL (       1 calls)

     Called by init_run:
     wfcinit      :      0.99s CPU      1.00s WALL (       1 calls)
     potinit      :      0.07s CPU      0.07s WALL (       1 calls)
     hinit0       :      0.51s CPU      0.52s WALL (       1 calls)

     Called by electrons:
     c_bands      :     22.44s CPU     22.63s WALL (       8 calls)
     sum_band     :      4.66s CPU      5.08s WALL (       8 calls)
     v_of_rho     :      0.41s CPU      0.44s WALL (       8 calls)
     newd         :      0.62s CPU      0.85s WALL (       8 calls)
     mix_rho      :      0.04s CPU      0.04s WALL (       8 calls)

     Called by c_bands:
     init_us_2    :      0.56s CPU      0.56s WALL (    1224 calls)
     cegterg      :     21.57s CPU     21.75s WALL (     576 calls)

     Called by *egterg:
     cdiaghg      :      0.26s CPU      0.26s WALL (    2279 calls)
     h_psi        :     17.87s CPU     18.02s WALL (    2423 calls)
     s_psi        :      0.72s CPU      0.72s WALL (    2423 calls)
     g_psi        :      0.07s CPU      0.07s WALL (    1775 calls)

     Called by h_psi:
     h_psi:calbec :      0.87s CPU      0.88s WALL (    2423 calls)
     vloc_psi     :     16.20s CPU     16.34s WALL (    2423 calls)
     add_vuspsi   :      0.73s CPU      0.73s WALL (    2423 calls)

     General routines
     calbec       :      1.19s CPU      1.20s WALL (    2999 calls)
     fft          :      0.19s CPU      0.19s WALL (     103 calls)
     ffts         :      0.01s CPU      0.01s WALL (      16 calls)
     fftw         :     17.16s CPU     17.33s WALL (   41522 calls)
     interpolate  :      0.03s CPU      0.03s WALL (       8 calls)


     PWSCF        :     29.89s CPU     30.83s WALL


   This run was terminated on:  11:30:55   2Jul2021            

=------------------------------------------------------------------------------=
   JOB DONE.
=------------------------------------------------------------------------------=
