
     Program PHONON v.6.7MaX starts on  2Jul2021 at 11:51:15 

     This program is part of the open-source Quantum ESPRESSO suite
     for quantum simulation of materials; please cite
         "P. Giannozzi et al., J. Phys.:Condens. Matter 21 395502 (2009);
         "P. Giannozzi et al., J. Phys.:Condens. Matter 29 465901 (2017);
          URL http://www.quantum-espresso.org", 
     in publications or presentations arising from this work. More details at
     http://www.quantum-espresso.org/quote

     Serial version
     Waiting for input...
     Reading input from standard input

     Reading xml data from directory:

     /home/elena/AEP_DFT/DFT/tmp/vib/Pb.save/
     file Pb.pbe-dn-rrkjus_psl.1.0.0.UPF: wavefunction(s)  6S 5D renormalized

     IMPORTANT: XC functional enforced from input :
     Exchange-correlation= PBE
                           (   1   4   3   4   0   0   0)
     Any further DFT definition will be discarded
     Please, verify this is what you really want


     G-vector sticks info
     --------------------
     sticks:   dense  smooth     PW     G-vecs:    dense   smooth      PW
     Sum        1639     823    253                43895    15593    2685

     Reading collected, re-writing distributed wavefunctions

     Saving dvscf to file. Distribute only q points, not irreducible represetations.

     Calculation of q =    0.0000000   0.0000000   0.0000000

     ABC                                                                        

     bravais-lattice index     =            2
     lattice parameter (alat)  =       9.2226  a.u.
     unit-cell volume          =     196.1075 (a.u.)^3
     number of atoms/cell      =            1
     number of atomic types    =            1
     kinetic-energy cut-off    =      70.0000  Ry
     charge density cut-off    =     560.0000  Ry
     convergence threshold     =      1.0E-12
     beta                      =       0.7000
     number of iterations used =            4
     Exchange-correlation= PBE
                           (   1   4   3   4   0   0   0)


     celldm(1)=    9.22256  celldm(2)=    0.00000  celldm(3)=    0.00000
     celldm(4)=    0.00000  celldm(5)=    0.00000  celldm(6)=    0.00000

     crystal axes: (cart. coord. in units of alat)
               a(1) = ( -0.5000  0.0000  0.5000 )  
               a(2) = (  0.0000  0.5000  0.5000 )  
               a(3) = ( -0.5000  0.5000  0.0000 )  

     reciprocal axes: (cart. coord. in units 2 pi/alat)
               b(1) = ( -1.0000 -1.0000  1.0000 )  
               b(2) = (  1.0000  1.0000  1.0000 )  
               b(3) = ( -1.0000  1.0000 -1.0000 )  


     Atoms inside the unit cell: 

     Cartesian axes

     site n.  atom      mass           positions (alat units)
        1     Pb 207.2000   tau(    1) = (    0.00000    0.00000    0.00000  )

     Computing dynamical matrix for 
                    q = (   0.0000000   0.0000000   0.0000000 )

     49 Sym.Ops. (with q -> -q+G )


     G cutoff = 1206.5105  (  43895 G-vectors)     FFT grid: ( 50, 50, 50)
     G cutoff =  603.2553  (  15593 G-vectors)  smooth grid: ( 36, 36, 36)

     number of k points=   104  Methfessel-Paxton smearing, width (Ry)=  0.0090

     PseudoPot. # 1 for Pb read from file:
     /home/elena/qe-6.7/pseudo/Pb.pbe-dn-rrkjus_psl.1.0.0.UPF
     MD5 check sum: 1cf8f5e18580e6a90a35f98a53d336de
     Pseudo is Ultrasoft + core correction, Zval = 14.0
     Generated using &quot;atomic&quot; code by A. Dal Corso  v.6.3
     Using radial grid of 1281 points,  6 beta functions with: 
                l(1) =   0
                l(2) =   0
                l(3) =   1
                l(4) =   1
                l(5) =   2
                l(6) =   2
     Q(r) pseudized with 0 coefficients 


     Mode symmetry, O_h (m-3m)  point group:


     Atomic displacements:
     There are    1 irreducible representations

     Representation     1      3 modes -  To be done



     Alpha used in Ewald sum =   2.8000
     PHONON       :      6.71s CPU      6.86s WALL



     Representation #   1 modes #   1   2   3

     Self-consistent Calculation

     Pert. #  1: Fermi energy shift (Ry) =     1.1029E-24     4.3101E-38
     Pert. #  2: Fermi energy shift (Ry) =     2.2058E-24     6.2693E-38
     Pert. #  3: Fermi energy shift (Ry) =    -1.7922E-24     0.0000E+00

      iter #   1 total cpu time :    39.7 secs   av.it.:   8.9
      thresh= 1.000E-02 alpha_mix =  0.700 |ddv_scf|^2 =  1.034E-06

     Pert. #  1: Fermi energy shift (Ry) =    -1.1029E-24     0.0000E+00
     Pert. #  2: Fermi energy shift (Ry) =     1.3786E-25     0.0000E+00
     Pert. #  3: Fermi energy shift (Ry) =    -8.2718E-25     0.0000E+00

      iter #   2 total cpu time :    84.4 secs   av.it.:  14.6
      thresh= 1.017E-04 alpha_mix =  0.700 |ddv_scf|^2 =  9.189E-08

     Pert. #  1: Fermi energy shift (Ry) =    -5.5145E-25     0.0000E+00
     Pert. #  2: Fermi energy shift (Ry) =     1.1029E-24     0.0000E+00
     Pert. #  3: Fermi energy shift (Ry) =    -2.7573E-25     0.0000E+00

      iter #   3 total cpu time :   126.2 secs   av.it.:  14.2
      thresh= 3.031E-05 alpha_mix =  0.700 |ddv_scf|^2 =  4.459E-11

     Pert. #  1: Fermi energy shift (Ry) =    -5.5145E-25     6.8877E-41
     Pert. #  2: Fermi energy shift (Ry) =    -1.5854E-24     4.5918E-41
     Pert. #  3: Fermi energy shift (Ry) =    -2.7573E-25    -1.5306E-41

      iter #   4 total cpu time :   169.6 secs   av.it.:  14.3
      thresh= 6.678E-07 alpha_mix =  0.700 |ddv_scf|^2 =  6.337E-13

     End of self-consistent calculation

     Convergence has been achieved 

     Number of q in the star =    1
     List of q in the star:
          1   0.000000000   0.000000000   0.000000000

     Diagonalizing the dynamical matrix

     q = (    0.000000000   0.000000000   0.000000000 ) 

 **************************************************************************
     freq (    1) =       0.574692 [THz] =      19.169672 [cm-1]
     freq (    2) =       0.574692 [THz] =      19.169672 [cm-1]
     freq (    3) =       0.574692 [THz] =      19.169672 [cm-1]
 **************************************************************************

     Mode symmetry, O_h (m-3m)  point group:

     freq (   1-   3) =         19.2  [cm-1]   --> T_1u G_15  G_4- I  

     PHONON       :   2m49.07s CPU   2m50.51s WALL

     INITIALIZATION: 
     phq_setup    :      0.14s CPU      0.16s WALL (       1 calls)
     phq_init     :      5.73s CPU      5.80s WALL (       1 calls)

     phq_init     :      5.73s CPU      5.80s WALL (       1 calls)
     set_drhoc    :      1.31s CPU      1.31s WALL (       3 calls)
     init_vloc    :      0.00s CPU      0.00s WALL (       1 calls)
     init_us_1    :      0.40s CPU      0.40s WALL (       1 calls)
     newd         :      0.09s CPU      0.13s WALL (       1 calls)
     dvanqq       :      0.71s CPU      0.71s WALL (       1 calls)
     drho         :      2.60s CPU      2.65s WALL (       1 calls)

     DYNAMICAL MATRIX:
     dynmat0      :      1.38s CPU      1.39s WALL (       1 calls)
     phqscf       :    162.36s CPU    163.62s WALL (       1 calls)
     dynmatrix    :      0.00s CPU      0.00s WALL (       1 calls)

     phqscf       :    162.36s CPU    163.62s WALL (       1 calls)
     solve_linter :    161.67s CPU    162.91s WALL (       1 calls)
     drhodv       :      0.69s CPU      0.71s WALL (       1 calls)

     dynmat0      :      1.38s CPU      1.39s WALL (       1 calls)
     dynmat_us    :      0.44s CPU      0.44s WALL (       1 calls)
     d2ionq       :      0.00s CPU      0.00s WALL (       1 calls)
     dynmatcc     :      0.93s CPU      0.95s WALL (       1 calls)

     dynmat_us    :      0.44s CPU      0.44s WALL (       1 calls)
     addusdynmat  :      0.00s CPU      0.00s WALL (       1 calls)

     phqscf       :    162.36s CPU    163.62s WALL (       1 calls)
     solve_linter :    161.67s CPU    162.91s WALL (       1 calls)

     solve_linter :    161.67s CPU    162.91s WALL (       1 calls)
     dvqpsi_us    :      3.98s CPU      4.01s WALL (     312 calls)
     ortho        :      1.57s CPU      1.59s WALL (    1248 calls)
     cgsolve      :    135.35s CPU    135.94s WALL (    1248 calls)
     incdrhoscf   :      9.12s CPU      9.37s WALL (    1248 calls)
     addusddens   :      0.75s CPU      0.76s WALL (       5 calls)
     vpsifft      :      5.71s CPU      5.83s WALL (     936 calls)
     dv_of_drho   :      0.41s CPU      0.44s WALL (      12 calls)
     mix_pot      :      0.03s CPU      0.07s WALL (       4 calls)
     ef_shift     :      0.05s CPU      0.09s WALL (       5 calls)
     localdos     :      0.85s CPU      0.86s WALL (       1 calls)
     symdvscf     :      1.78s CPU      1.79s WALL (       4 calls)
     newdq        :      0.99s CPU      1.00s WALL (       4 calls)
     adddvscf     :      0.45s CPU      0.45s WALL (     936 calls)
     drhodvus     :      0.00s CPU      0.00s WALL (       1 calls)

     dvqpsi_us    :      3.98s CPU      4.01s WALL (     312 calls)
     dvqpsi_us_on :      0.63s CPU      0.64s WALL (     312 calls)

     cgsolve      :    135.35s CPU    135.94s WALL (    1248 calls)
     ch_psi       :    132.01s CPU    132.58s WALL (   19726 calls)

     ch_psi       :    132.01s CPU    132.58s WALL (   19726 calls)
     h_psi        :    113.04s CPU    113.54s WALL (   19726 calls)
     last         :     14.19s CPU     14.25s WALL (   19726 calls)

     h_psi        :    113.04s CPU    113.54s WALL (   19726 calls)
     add_vuspsi   :      4.29s CPU      4.31s WALL (   19726 calls)

     incdrhoscf   :      9.12s CPU      9.37s WALL (    1248 calls)
     addusdbec    :      0.81s CPU      0.81s WALL (    1560 calls)

     drhodvus     :      0.00s CPU      0.00s WALL (       1 calls)

      General routines
     calbec       :     12.97s CPU     13.05s WALL (   44652 calls)
     fft          :      0.50s CPU      0.52s WALL (     286 calls)
     ffts         :      0.81s CPU      0.82s WALL (    1074 calls)
     fftw         :    109.63s CPU    110.42s WALL (  276085 calls)
     davcio       :      0.44s CPU      0.56s WALL (    5445 calls)
     write_rec    :      0.00s CPU      0.03s WALL (       5 calls)


     PHONON       :   2m49.07s CPU   2m50.51s WALL


   This run was terminated on:  11:54: 6   2Jul2021            

=------------------------------------------------------------------------------=
   JOB DONE.
=------------------------------------------------------------------------------=
