
     Program PWSCF v.6.7MaX starts on  2Jul2021 at 10:33:45 

     This program is part of the open-source Quantum ESPRESSO suite
     for quantum simulation of materials; please cite
         "P. Giannozzi et al., J. Phys.:Condens. Matter 21 395502 (2009);
         "P. Giannozzi et al., J. Phys.:Condens. Matter 29 465901 (2017);
          URL http://www.quantum-espresso.org", 
     in publications or presentations arising from this work. More details at
     http://www.quantum-espresso.org/quote

     Serial version
     Waiting for input...
     Reading input from standard input

     Current dimensions of program PWSCF are:
     Max number of different atomic species (ntypx) = 10
     Max number of k-points (npk) =  40000
     Max angular momentum in pseudopotentials (lmaxx) =  3
     file Pb.pbe-dn-rrkjus_psl.1.0.0.UPF: wavefunction(s)  6S 5D renormalized

     G-vector sticks info
     --------------------
     sticks:   dense  smooth     PW     G-vecs:    dense   smooth      PW
     Sum        1639     823    253                43895    15593    2685


     Title: 
     Lead                                                                       


     bravais-lattice index     =            2
     lattice parameter (alat)  =       9.2226  a.u.
     unit-cell volume          =     196.1075 (a.u.)^3
     number of atoms/cell      =            1
     number of atomic types    =            1
     number of electrons       =        14.00
     number of Kohn-Sham states=           11
     kinetic-energy cutoff     =      70.0000  Ry
     charge density cutoff     =     560.0000  Ry
     scf convergence threshold =      1.0E-09
     mixing beta               =       0.7000
     number of iterations used =            8  plain     mixing
     Exchange-correlation= PBE
                           (   1   4   3   4   0   0   0)

     celldm(1)=   9.222558  celldm(2)=   0.000000  celldm(3)=   0.000000
     celldm(4)=   0.000000  celldm(5)=   0.000000  celldm(6)=   0.000000

     crystal axes: (cart. coord. in units of alat)
               a(1) = (  -0.500000   0.000000   0.500000 )  
               a(2) = (   0.000000   0.500000   0.500000 )  
               a(3) = (  -0.500000   0.500000   0.000000 )  

     reciprocal axes: (cart. coord. in units 2 pi/alat)
               b(1) = ( -1.000000 -1.000000  1.000000 )  
               b(2) = (  1.000000  1.000000  1.000000 )  
               b(3) = ( -1.000000  1.000000 -1.000000 )  


     PseudoPot. # 1 for Pb read from file:
     /home/elena/qe-6.7/pseudo/Pb.pbe-dn-rrkjus_psl.1.0.0.UPF
     MD5 check sum: 1cf8f5e18580e6a90a35f98a53d336de
     Pseudo is Ultrasoft + core correction, Zval = 14.0
     Generated using &quot;atomic&quot; code by A. Dal Corso  v.6.3
     Using radial grid of 1281 points,  6 beta functions with: 
                l(1) =   0
                l(2) =   0
                l(3) =   1
                l(4) =   1
                l(5) =   2
                l(6) =   2
     Q(r) pseudized with 0 coefficients 


     atomic species   valence    mass     pseudopotential
        Pb            14.00   207.20000     Pb( 1.00)

     48 Sym. Ops., with inversion, found



   Cartesian axes

     site n.     atom                  positions (alat units)
         1           Pb  tau(   1) = (   0.0000000   0.0000000   0.0000000  )

     number of k points=   145  Methfessel-Paxton smearing, width (Ry)=  0.0400

     Number of k-points >= 100: set verbosity='high' to print them.

     Dense  grid:    43895 G-vectors     FFT dimensions: (  50,  50,  50)

     Smooth grid:    15593 G-vectors     FFT dimensions: (  36,  36,  36)

     Estimated max dynamical RAM per process >     201.84 MB

     Initial potential from superposition of free atoms

     starting charge   13.99765, renormalised to   14.00000
     Starting wfcs are    9 randomized atomic wfcs +    2 random wfcs

     total cpu time spent up to now is        3.1 secs

     Self-consistent Calculation

     iteration #  1     ecut=    70.00 Ry     beta= 0.70
     Davidson diagonalization with overlap
     ethr =  1.00E-02,  avg # of iterations =  4.4

     Threshold (ethr) on eigenvalues was too large:
     Diagonalizing with lowered threshold

     Davidson diagonalization with overlap
     c_bands:  1 eigenvalues not converged
     ethr =  1.66E-05,  avg # of iterations =  6.6

     total cpu time spent up to now is       19.5 secs

     total energy              =    -135.43491349 Ry
     estimated scf accuracy    <       0.00234609 Ry

     iteration #  2     ecut=    70.00 Ry     beta= 0.70
     Davidson diagonalization with overlap
     ethr =  1.68E-05,  avg # of iterations =  2.0

     total cpu time spent up to now is       26.8 secs

     total energy              =    -135.43540835 Ry
     estimated scf accuracy    <       0.00018565 Ry

     iteration #  3     ecut=    70.00 Ry     beta= 0.70
     Davidson diagonalization with overlap
     ethr =  1.33E-06,  avg # of iterations =  2.5

     total cpu time spent up to now is       33.7 secs

     total energy              =    -135.43543764 Ry
     estimated scf accuracy    <       0.00000781 Ry

     iteration #  4     ecut=    70.00 Ry     beta= 0.70
     Davidson diagonalization with overlap
     ethr =  5.58E-08,  avg # of iterations =  2.0

     total cpu time spent up to now is       40.8 secs

     total energy              =    -135.43543851 Ry
     estimated scf accuracy    <       0.00000059 Ry

     iteration #  5     ecut=    70.00 Ry     beta= 0.70
     Davidson diagonalization with overlap
     c_bands:  1 eigenvalues not converged
     ethr =  4.20E-09,  avg # of iterations =  2.1

     total cpu time spent up to now is       48.1 secs

     total energy              =    -135.43543871 Ry
     estimated scf accuracy    <       0.00000010 Ry

     iteration #  6     ecut=    70.00 Ry     beta= 0.70
     Davidson diagonalization with overlap
     ethr =  6.94E-10,  avg # of iterations =  2.2

     total cpu time spent up to now is       54.7 secs

     total energy              =    -135.43543872 Ry
     estimated scf accuracy    <          1.5E-09 Ry

     iteration #  7     ecut=    70.00 Ry     beta= 0.70
     Davidson diagonalization with overlap
     ethr =  1.09E-11,  avg # of iterations =  2.8

     total cpu time spent up to now is       62.3 secs

     End of self-consistent calculation

     Number of k-points >= 100: set verbosity='high' to print the bands.

     the Fermi energy is    11.9230 ev

!    total energy              =    -135.43543872 Ry
     estimated scf accuracy    <          1.6E-10 Ry
     smearing contrib. (-TS)   =       0.00021483 Ry
     internal energy E=F+TS    =    -135.43565355 Ry

     The total energy is F=E-TS. E is the sum of the following terms:
     one-electron contribution =     -31.47576578 Ry
     hartree contribution      =      26.10376103 Ry
     xc contribution           =     -32.62507164 Ry
     ewald contribution        =     -97.43857717 Ry

     convergence has been achieved in   7 iterations

     Writing output data file /home/elena/AEP_DFT/DFT/tmp/Pb.save/

     init_run     :      2.85s CPU      2.92s WALL (       1 calls)
     electrons    :     58.50s CPU     59.27s WALL (       1 calls)

     Called by init_run:
     wfcinit      :      2.12s CPU      2.14s WALL (       1 calls)
     potinit      :      0.08s CPU      0.08s WALL (       1 calls)
     hinit0       :      0.52s CPU      0.52s WALL (       1 calls)

     Called by electrons:
     c_bands      :     48.73s CPU     48.87s WALL (       8 calls)
     sum_band     :      8.70s CPU      9.09s WALL (       8 calls)
     v_of_rho     :      0.46s CPU      0.48s WALL (       8 calls)
     newd         :      0.67s CPU      0.94s WALL (       8 calls)
     mix_rho      :      0.04s CPU      0.04s WALL (       8 calls)

     Called by c_bands:
     init_us_2    :      1.23s CPU      1.24s WALL (    2465 calls)
     cegterg      :     46.84s CPU     46.96s WALL (    1160 calls)

     Called by *egterg:
     cdiaghg      :      0.59s CPU      0.59s WALL (    4601 calls)
     h_psi        :     38.72s CPU     38.84s WALL (    4891 calls)
     s_psi        :      1.56s CPU      1.57s WALL (    4891 calls)
     g_psi        :      0.17s CPU      0.17s WALL (    3586 calls)

     Called by h_psi:
     h_psi:calbec :      1.83s CPU      1.84s WALL (    4891 calls)
     vloc_psi     :     35.17s CPU     35.28s WALL (    4891 calls)
     add_vuspsi   :      1.59s CPU      1.59s WALL (    4891 calls)

     General routines
     calbec       :      2.46s CPU      2.46s WALL (    6051 calls)
     fft          :      0.21s CPU      0.21s WALL (     103 calls)
     ffts         :      0.02s CPU      0.02s WALL (      16 calls)
     fftw         :     37.95s CPU     38.07s WALL (   83948 calls)
     interpolate  :      0.03s CPU      0.03s WALL (       8 calls)


     PWSCF        :   1m 1.53s CPU   1m 2.47s WALL


   This run was terminated on:  10:34:47   2Jul2021            

=------------------------------------------------------------------------------=
   JOB DONE.
=------------------------------------------------------------------------------=
