
     Program PWSCF v.6.7MaX starts on  2Jul2021 at 11:16:51 

     This program is part of the open-source Quantum ESPRESSO suite
     for quantum simulation of materials; please cite
         "P. Giannozzi et al., J. Phys.:Condens. Matter 21 395502 (2009);
         "P. Giannozzi et al., J. Phys.:Condens. Matter 29 465901 (2017);
          URL http://www.quantum-espresso.org", 
     in publications or presentations arising from this work. More details at
     http://www.quantum-espresso.org/quote

     Serial version
     Waiting for input...
     Reading input from standard input

     Current dimensions of program PWSCF are:
     Max number of different atomic species (ntypx) = 10
     Max number of k-points (npk) =  40000
     Max angular momentum in pseudopotentials (lmaxx) =  3
     file Pb.pbe-dn-rrkjus_psl.1.0.0.UPF: wavefunction(s)  6S 5D renormalized

     G-vector sticks info
     --------------------
     sticks:   dense  smooth     PW     G-vecs:    dense   smooth      PW
     Sum        1639     823    253                43895    15593    2685


     Title: 
     Lead                                                                       


     bravais-lattice index     =            2
     lattice parameter (alat)  =       9.2226  a.u.
     unit-cell volume          =     196.1075 (a.u.)^3
     number of atoms/cell      =            1
     number of atomic types    =            1
     number of electrons       =        14.00
     number of Kohn-Sham states=           11
     kinetic-energy cutoff     =      70.0000  Ry
     charge density cutoff     =     560.0000  Ry
     scf convergence threshold =      1.0E-09
     mixing beta               =       0.7000
     number of iterations used =            8  plain     mixing
     Exchange-correlation= PBE
                           (   1   4   3   4   0   0   0)

     celldm(1)=   9.222558  celldm(2)=   0.000000  celldm(3)=   0.000000
     celldm(4)=   0.000000  celldm(5)=   0.000000  celldm(6)=   0.000000

     crystal axes: (cart. coord. in units of alat)
               a(1) = (  -0.500000   0.000000   0.500000 )  
               a(2) = (   0.000000   0.500000   0.500000 )  
               a(3) = (  -0.500000   0.500000   0.000000 )  

     reciprocal axes: (cart. coord. in units 2 pi/alat)
               b(1) = ( -1.000000 -1.000000  1.000000 )  
               b(2) = (  1.000000  1.000000  1.000000 )  
               b(3) = ( -1.000000  1.000000 -1.000000 )  


     PseudoPot. # 1 for Pb read from file:
     /home/elena/qe-6.7/pseudo/Pb.pbe-dn-rrkjus_psl.1.0.0.UPF
     MD5 check sum: 1cf8f5e18580e6a90a35f98a53d336de
     Pseudo is Ultrasoft + core correction, Zval = 14.0
     Generated using &quot;atomic&quot; code by A. Dal Corso  v.6.3
     Using radial grid of 1281 points,  6 beta functions with: 
                l(1) =   0
                l(2) =   0
                l(3) =   1
                l(4) =   1
                l(5) =   2
                l(6) =   2
     Q(r) pseudized with 0 coefficients 


     atomic species   valence    mass     pseudopotential
        Pb            14.00   207.20000     Pb( 1.00)

     48 Sym. Ops., with inversion, found



   Cartesian axes

     site n.     atom                  positions (alat units)
         1           Pb  tau(   1) = (   0.0000000   0.0000000   0.0000000  )

     number of k points=    47  Methfessel-Paxton smearing, width (Ry)=  0.0200
                       cart. coord. in units 2pi/alat
        k(    1) = (   0.0000000   0.0000000   0.0000000), wk =   0.0020000
        k(    2) = (  -0.1000000   0.1000000  -0.1000000), wk =   0.0160000
        k(    3) = (  -0.2000000   0.2000000  -0.2000000), wk =   0.0160000
        k(    4) = (  -0.3000000   0.3000000  -0.3000000), wk =   0.0160000
        k(    5) = (  -0.4000000   0.4000000  -0.4000000), wk =   0.0160000
        k(    6) = (   0.5000000  -0.5000000   0.5000000), wk =   0.0080000
        k(    7) = (   0.0000000   0.2000000   0.0000000), wk =   0.0120000
        k(    8) = (  -0.1000000   0.3000000  -0.1000000), wk =   0.0480000
        k(    9) = (  -0.2000000   0.4000000  -0.2000000), wk =   0.0480000
        k(   10) = (  -0.3000000   0.5000000  -0.3000000), wk =   0.0480000
        k(   11) = (   0.6000000  -0.4000000   0.6000000), wk =   0.0480000
        k(   12) = (   0.5000000  -0.3000000   0.5000000), wk =   0.0480000
        k(   13) = (   0.4000000  -0.2000000   0.4000000), wk =   0.0480000
        k(   14) = (   0.3000000  -0.1000000   0.3000000), wk =   0.0480000
        k(   15) = (   0.2000000   0.0000000   0.2000000), wk =   0.0240000
        k(   16) = (   0.0000000   0.4000000   0.0000000), wk =   0.0120000
        k(   17) = (  -0.1000000   0.5000000  -0.1000000), wk =   0.0480000
        k(   18) = (  -0.2000000   0.6000000  -0.2000000), wk =   0.0480000
        k(   19) = (   0.7000000  -0.3000000   0.7000000), wk =   0.0480000
        k(   20) = (   0.6000000  -0.2000000   0.6000000), wk =   0.0480000
        k(   21) = (   0.5000000  -0.1000000   0.5000000), wk =   0.0480000
        k(   22) = (   0.4000000   0.0000000   0.4000000), wk =   0.0240000
        k(   23) = (   0.0000000   0.6000000   0.0000000), wk =   0.0120000
        k(   24) = (  -0.1000000   0.7000000  -0.1000000), wk =   0.0480000
        k(   25) = (   0.8000000  -0.2000000   0.8000000), wk =   0.0480000
        k(   26) = (   0.7000000  -0.1000000   0.7000000), wk =   0.0480000
        k(   27) = (   0.6000000  -0.0000000   0.6000000), wk =   0.0240000
        k(   28) = (   0.0000000   0.8000000   0.0000000), wk =   0.0120000
        k(   29) = (   0.9000000  -0.1000000   0.9000000), wk =   0.0480000
        k(   30) = (   0.8000000   0.0000000   0.8000000), wk =   0.0240000
        k(   31) = (   0.0000000  -1.0000000   0.0000000), wk =   0.0060000
        k(   32) = (  -0.2000000   0.4000000   0.0000000), wk =   0.0480000
        k(   33) = (  -0.3000000   0.5000000  -0.1000000), wk =   0.0960000
        k(   34) = (   0.6000000  -0.4000000   0.8000000), wk =   0.0960000
        k(   35) = (   0.5000000  -0.3000000   0.7000000), wk =   0.0480000
        k(   36) = (  -0.2000000   0.6000000   0.0000000), wk =   0.0480000
        k(   37) = (   0.7000000  -0.3000000   0.9000000), wk =   0.0960000
        k(   38) = (   0.6000000  -0.2000000   0.8000000), wk =   0.0960000
        k(   39) = (   0.5000000  -0.1000000   0.7000000), wk =   0.0960000
        k(   40) = (   0.4000000   0.0000000   0.6000000), wk =   0.0480000
        k(   41) = (   0.8000000  -0.2000000   1.0000000), wk =   0.0480000
        k(   42) = (   0.7000000  -0.1000000   0.9000000), wk =   0.0960000
        k(   43) = (   0.6000000   0.0000000   0.8000000), wk =   0.0480000
        k(   44) = (  -0.2000000  -1.0000000   0.0000000), wk =   0.0240000
        k(   45) = (   0.6000000  -0.2000000   1.0000000), wk =   0.0480000
        k(   46) = (   0.5000000  -0.1000000   0.9000000), wk =   0.0480000
        k(   47) = (  -0.4000000  -1.0000000   0.0000000), wk =   0.0240000

     Dense  grid:    43895 G-vectors     FFT dimensions: (  50,  50,  50)

     Smooth grid:    15593 G-vectors     FFT dimensions: (  36,  36,  36)

     Estimated max dynamical RAM per process >     169.93 MB

     Initial potential from superposition of free atoms

     starting charge   13.99765, renormalised to   14.00000
     Starting wfcs are    9 randomized atomic wfcs +    2 random wfcs

     total cpu time spent up to now is        1.7 secs

     Self-consistent Calculation

     iteration #  1     ecut=    70.00 Ry     beta= 0.70
     Davidson diagonalization with overlap
     ethr =  1.00E-02,  avg # of iterations =  4.6

     Threshold (ethr) on eigenvalues was too large:
     Diagonalizing with lowered threshold

     Davidson diagonalization with overlap
     ethr =  1.72E-05,  avg # of iterations =  5.9

     total cpu time spent up to now is        7.8 secs

     total energy              =    -135.43492292 Ry
     estimated scf accuracy    <       0.00241879 Ry

     iteration #  2     ecut=    70.00 Ry     beta= 0.70
     Davidson diagonalization with overlap
     ethr =  1.73E-05,  avg # of iterations =  2.1

     total cpu time spent up to now is       10.4 secs

     total energy              =    -135.43543385 Ry
     estimated scf accuracy    <       0.00019049 Ry

     iteration #  3     ecut=    70.00 Ry     beta= 0.70
     Davidson diagonalization with overlap
     ethr =  1.36E-06,  avg # of iterations =  3.0

     total cpu time spent up to now is       13.0 secs

     total energy              =    -135.43546396 Ry
     estimated scf accuracy    <       0.00000791 Ry

     iteration #  4     ecut=    70.00 Ry     beta= 0.70
     Davidson diagonalization with overlap
     ethr =  5.65E-08,  avg # of iterations =  2.0

     total cpu time spent up to now is       15.7 secs

     total energy              =    -135.43546488 Ry
     estimated scf accuracy    <       0.00000060 Ry

     iteration #  5     ecut=    70.00 Ry     beta= 0.70
     Davidson diagonalization with overlap
     ethr =  4.29E-09,  avg # of iterations =  2.0

     total cpu time spent up to now is       18.3 secs

     total energy              =    -135.43546507 Ry
     estimated scf accuracy    <       0.00000009 Ry

     iteration #  6     ecut=    70.00 Ry     beta= 0.70
     Davidson diagonalization with overlap
     ethr =  6.70E-10,  avg # of iterations =  2.3

     total cpu time spent up to now is       21.0 secs

     total energy              =    -135.43546508 Ry
     estimated scf accuracy    <          1.8E-09 Ry

     iteration #  7     ecut=    70.00 Ry     beta= 0.70
     Davidson diagonalization with overlap
     ethr =  1.28E-11,  avg # of iterations =  2.6

     total cpu time spent up to now is       23.7 secs

     End of self-consistent calculation

          k = 0.0000 0.0000 0.0000 (  1917 PWs)   bands (ev):

    -5.2361  -5.2361  -5.2361  -5.0770  -5.0770  -0.1825  19.6428  19.6428
    19.6428  21.9773  23.7518

          k =-0.1000 0.1000-0.1000 (  1940 PWs)   bands (ev):

    -5.2371  -5.2207  -5.2207  -5.0777  -5.0777   0.0188  17.5270  19.3923
    19.3923  21.6086  24.5516

          k =-0.2000 0.2000-0.2000 (  1943 PWs)   bands (ev):

    -5.2429  -5.1973  -5.1973  -5.0614  -5.0614   0.6241  14.2693  18.8404
    18.8404  21.2654  24.4743

          k =-0.3000 0.3000-0.3000 (  1934 PWs)   bands (ev):

    -5.2556  -5.2015  -5.2015  -5.0066  -5.0066   1.6177  11.2223  18.2727
    18.2727  21.1163  23.1779

          k =-0.4000 0.4000-0.4000 (  1937 PWs)   bands (ev):

    -5.2699  -5.2173  -5.2173  -4.9489  -4.9489   2.8789   8.6954  17.8643
    17.8643  21.1874  22.2224

          k = 0.5000-0.5000 0.5000 (  1946 PWs)   bands (ev):

    -5.2764  -5.2245  -5.2245  -4.9253  -4.9253   3.6995   7.4487  17.7163
    17.7163  21.3866  21.7288

          k = 0.0000 0.2000 0.0000 (  1941 PWs)   bands (ev):

    -5.2543  -5.2049  -5.2049  -5.0962  -5.0639   0.0857  18.1889  18.5762
    18.5762  21.1813  24.1170

          k =-0.1000 0.3000-0.1000 (  1945 PWs)   bands (ev):

    -5.2640  -5.1777  -5.1735  -5.1066  -5.0436   0.5562  15.3801  17.7856
    18.3571  21.3282  22.7871

          k =-0.2000 0.4000-0.2000 (  1944 PWs)   bands (ev):

    -5.2651  -5.1860  -5.1676  -5.0695  -4.9943   1.4224  12.3051  17.2230
    17.6673  20.9677  23.2285

          k =-0.3000 0.5000-0.3000 (  1935 PWs)   bands (ev):

    -5.2663  -5.2081  -5.1825  -5.0087  -4.9417   2.6129   9.6168  16.8799
    16.9849  20.4712  23.5221

          k = 0.6000-0.4000 0.6000 (  1942 PWs)   bands (ev):

    -5.2644  -5.2226  -5.1961  -4.9607  -4.9236   3.7212   7.8184  16.2374
    17.1224  20.4098  23.1364

          k = 0.5000-0.3000 0.5000 (  1941 PWs)   bands (ev):

    -5.2555  -5.2229  -5.1971  -4.9537  -4.9472   3.4243   8.2578  15.8918
    17.6382  20.7569  22.7790

          k = 0.4000-0.2000 0.4000 (  1942 PWs)   bands (ev):

    -5.2467  -5.2080  -5.1847  -5.0200  -4.9719   2.1896  10.4588  15.9083
    18.4542  21.4671  22.6342

          k = 0.3000-0.1000 0.3000 (  1940 PWs)   bands (ev):

    -5.2434  -5.1914  -5.1740  -5.0858  -5.0178   1.0915  13.2843  16.3113
    19.3357  22.1925  22.9651

          k = 0.2000 0.0000 0.2000 (  1945 PWs)   bands (ev):

    -5.2427  -5.2002  -5.1959  -5.0948  -5.0566   0.3548  16.0988  17.3454
    19.7775  22.0141  24.1663

          k = 0.0000 0.4000 0.0000 (  1956 PWs)   bands (ev):

    -5.3016  -5.1520  -5.1210  -5.1210  -5.0293   0.8911  15.7287  16.8066
    16.8066  20.0948  20.9432

          k =-0.1000 0.5000-0.1000 (  1946 PWs)   bands (ev):

    -5.3151  -5.1856  -5.0939  -5.0724  -4.9886   1.6222  13.3666  16.0570
    16.1242  19.7821  20.8983

          k =-0.2000 0.6000-0.2000 (  1936 PWs)   bands (ev):

    -5.3060  -5.1985  -5.1041  -5.0418  -4.9358   2.6989  10.7841  14.9342
    15.8327  19.3398  22.9061

          k = 0.7000-0.3000 0.7000 (  1940 PWs)   bands (ev):

    -5.2909  -5.1859  -5.1211  -5.0257  -4.9191   3.8699   8.7749  13.9392
    15.9783  19.3121  25.2134

          k = 0.6000-0.2000 0.6000 (  1941 PWs)   bands (ev):

    -5.2690  -5.1771  -5.1307  -5.0097  -4.9528   4.1175   8.4389  13.2945
    16.5626  19.6511  24.9214

          k = 0.5000-0.1000 0.5000 (  1940 PWs)   bands (ev):

    -5.2385  -5.1931  -5.1271  -5.0253  -4.9933   3.0822  10.1032  13.1254
    17.5220  20.3478  24.5086

          k = 0.4000 0.0000 0.4000 (  1947 PWs)   bands (ev):

    -5.2228  -5.2077  -5.1110  -5.1088  -4.9926   1.9396  12.1704  13.8515
    18.6523  21.4039  23.8183

          k = 0.0000 0.6000 0.0000 (  1960 PWs)   bands (ev):

    -5.3597  -5.2300  -5.0131  -5.0131  -4.9862   2.2149  12.9147  15.3032
    15.3032  18.7940  19.2921

          k =-0.1000 0.7000-0.1000 (  1945 PWs)   bands (ev):

    -5.3664  -5.2555  -5.0104  -4.9788  -4.9335   3.1567  11.2303  13.9804
    14.8868  18.5149  20.0847

          k = 0.8000-0.2000 0.8000 (  1934 PWs)   bands (ev):

    -5.3427  -5.2352  -5.0276  -4.9895  -4.9119   4.2555   9.6945  12.3322
    14.9315  18.5282  22.3540

          k = 0.7000-0.1000 0.7000 (  1930 PWs)   bands (ev):

    -5.3122  -5.1608  -5.0456  -5.0406  -4.9424   4.7981   9.1990  11.1428
    15.4419  18.8215  25.1672

          k = 0.6000-0.0000 0.6000 (  1933 PWs)   bands (ev):

    -5.2753  -5.1203  -5.0693  -5.0631  -5.0006   4.1329  10.0178  10.9885
    16.3603  19.4238  27.2823

          k = 0.0000 0.8000 0.0000 (  1944 PWs)   bands (ev):

    -5.4062  -5.2990  -4.9511  -4.9221  -4.9221   3.9432  10.0956  14.3278
    14.3278  17.7092  18.8179

          k = 0.9000-0.1000 0.9000 (  1940 PWs)   bands (ev):

    -5.3980  -5.3034  -4.9572  -4.9166  -4.8990   4.8412   9.0611  12.9963
    14.2340  17.9514  19.7054

          k = 0.8000 0.0000 0.8000 (  1930 PWs)   bands (ev):

    -5.3576  -5.2520  -4.9834  -4.9655  -4.9173   5.2125   9.0976  11.2219
    14.6210  18.2851  22.1562

          k = 0.0000-1.0000 0.0000 (  1964 PWs)   bands (ev):

    -5.4241  -5.3265  -4.9377  -4.8866  -4.8866   5.2144   8.4278  13.9909
    13.9909  17.3856  18.6620

          k =-0.2000 0.4000 0.0000 (  1951 PWs)   bands (ev):

    -5.2734  -5.1730  -5.1248  -5.1202  -5.0110   1.1579  14.0063  15.5984
    18.2424  21.6069  21.6803

          k =-0.3000 0.5000-0.1000 (  1943 PWs)   bands (ev):

    -5.2631  -5.1956  -5.1319  -5.0646  -4.9716   2.1332  11.5565  14.6488
    17.3231  21.0615  23.0696

          k = 0.6000-0.4000 0.8000 (  1935 PWs)   bands (ev):

    -5.2499  -5.2189  -5.1380  -5.0177  -4.9425   3.3435   9.2199  14.3887
    16.4205  20.7607  23.1824

          k = 0.5000-0.3000 0.7000 (  1936 PWs)   bands (ev):

    -5.2377  -5.2366  -5.1387  -4.9990  -4.9325   4.0987   8.0739  14.3614
    16.0446  20.6685  22.9918

          k =-0.2000 0.6000 0.0000 (  1950 PWs)   bands (ev):

    -5.3223  -5.2146  -5.0796  -5.0157  -4.9610   2.4617  12.0971  14.1723
    15.5680  20.0775  20.7807

          k = 0.7000-0.3000 0.9000 (  1936 PWs)   bands (ev):

    -5.2992  -5.2178  -5.0891  -4.9973  -4.9359   3.5727  10.2903  13.0998
    14.7325  20.1886  22.6685

          k = 0.6000-0.2000 0.8000 (  1940 PWs)   bands (ev):

    -5.2760  -5.1881  -5.0865  -5.0364  -4.9269   4.5133   8.9456  12.3620
    14.6234  20.3849  24.4133

          k = 0.5000-0.1000 0.7000 (  1939 PWs)   bands (ev):

    -5.2515  -5.1842  -5.0899  -5.0421  -4.9567   4.2436   9.3752  11.9479
    15.1885  20.8517  24.0734

          k = 0.4000 0.0000 0.6000 (  1936 PWs)   bands (ev):

    -5.2244  -5.2221  -5.1141  -5.0195  -4.9867   3.1572  10.8124  12.4318
    16.1969  21.4407  23.6066

          k = 0.8000-0.2000 1.0000 (  1945 PWs)   bands (ev):

    -5.3624  -5.2736  -5.0083  -4.9357  -4.9230   4.1184  10.0864  13.2526
    13.6964  19.2550  20.2452

          k = 0.7000-0.1000 0.9000 (  1932 PWs)   bands (ev):

    -5.3243  -5.2448  -5.0293  -4.9816  -4.9037   4.9817   9.4281  11.5750
    13.5926  19.7728  22.3157

          k = 0.6000 0.0000 0.8000 (  1937 PWs)   bands (ev):

    -5.2881  -5.1614  -5.0887  -5.0282  -4.9265   4.9989  10.0548  10.1879
    14.1750  20.2390  25.1963

          k =-0.2000-1.0000 0.0000 (  1948 PWs)   bands (ev):

    -5.3778  -5.2979  -4.9619  -4.9437  -4.8866   5.2527   8.7647  12.9349
    13.1160  18.9966  20.0656

          k = 0.6000-0.2000 1.0000 (  1928 PWs)   bands (ev):

    -5.2435  -5.2314  -5.1054  -4.9977  -4.9249   4.5559   9.9957  11.5202
    13.4729  21.9512  23.0518

          k = 0.5000-0.1000 0.9000 (  1932 PWs)   bands (ev):

    -5.2379  -5.1817  -5.1361  -5.0292  -4.9047   5.0757   9.7472  10.9890
    12.9698  22.2628  23.9732

          k =-0.4000-1.0000 0.0000 (  1930 PWs)   bands (ev):

    -5.2520  -5.2392  -5.0866  -5.0136  -4.8865   5.3185   9.7317  11.2058
    12.2302  22.0174  22.8556

     the Fermi energy is    11.9261 ev

!    total energy              =    -135.43546508 Ry
     estimated scf accuracy    <          1.6E-10 Ry
     smearing contrib. (-TS)   =       0.00027096 Ry
     internal energy E=F+TS    =    -135.43573604 Ry

     The total energy is F=E-TS. E is the sum of the following terms:
     one-electron contribution =     -31.47159320 Ry
     hartree contribution      =      26.09876896 Ry
     xc contribution           =     -32.62433464 Ry
     ewald contribution        =     -97.43857717 Ry

     convergence has been achieved in   7 iterations

     Writing output data file /home/elena/AEP_DFT/DFT/tmp/vib/Pb.save/

     init_run     :      1.48s CPU      1.56s WALL (       1 calls)
     electrons    :     21.13s CPU     21.99s WALL (       1 calls)

     Called by init_run:
     wfcinit      :      0.72s CPU      0.73s WALL (       1 calls)
     potinit      :      0.09s CPU      0.11s WALL (       1 calls)
     hinit0       :      0.51s CPU      0.51s WALL (       1 calls)

     Called by electrons:
     c_bands      :     16.67s CPU     16.80s WALL (       8 calls)
     sum_band     :      3.37s CPU      3.82s WALL (       8 calls)
     v_of_rho     :      0.50s CPU      0.53s WALL (       8 calls)
     newd         :      0.70s CPU      1.03s WALL (       8 calls)
     mix_rho      :      0.04s CPU      0.04s WALL (       8 calls)

     Called by c_bands:
     init_us_2    :      0.41s CPU      0.41s WALL (     799 calls)
     cegterg      :     16.02s CPU     16.14s WALL (     376 calls)

     Called by *egterg:
     cdiaghg      :      0.20s CPU      0.20s WALL (    1477 calls)
     h_psi        :     13.27s CPU     13.37s WALL (    1571 calls)
     s_psi        :      0.53s CPU      0.54s WALL (    1571 calls)
     g_psi        :      0.06s CPU      0.06s WALL (    1148 calls)

     Called by h_psi:
     h_psi:calbec :      0.63s CPU      0.64s WALL (    1571 calls)
     vloc_psi     :     12.05s CPU     12.15s WALL (    1571 calls)
     add_vuspsi   :      0.54s CPU      0.54s WALL (    1571 calls)

     General routines
     calbec       :      0.84s CPU      0.85s WALL (    1947 calls)
     fft          :      0.23s CPU      0.23s WALL (     103 calls)
     ffts         :      0.02s CPU      0.02s WALL (      16 calls)
     fftw         :     12.84s CPU     12.95s WALL (   26992 calls)
     interpolate  :      0.03s CPU      0.03s WALL (       8 calls)


     PWSCF        :     22.77s CPU     23.73s WALL


   This run was terminated on:  11:17:15   2Jul2021            

=------------------------------------------------------------------------------=
   JOB DONE.
=------------------------------------------------------------------------------=
