
     Program PWSCF v.6.7MaX starts on  2Jul2021 at 11:35:21 

     This program is part of the open-source Quantum ESPRESSO suite
     for quantum simulation of materials; please cite
         "P. Giannozzi et al., J. Phys.:Condens. Matter 21 395502 (2009);
         "P. Giannozzi et al., J. Phys.:Condens. Matter 29 465901 (2017);
          URL http://www.quantum-espresso.org", 
     in publications or presentations arising from this work. More details at
     http://www.quantum-espresso.org/quote

     Serial version
     Waiting for input...
     Reading input from standard input

     Current dimensions of program PWSCF are:
     Max number of different atomic species (ntypx) = 10
     Max number of k-points (npk) =  40000
     Max angular momentum in pseudopotentials (lmaxx) =  3
     file Pb.pbe-dn-rrkjus_psl.1.0.0.UPF: wavefunction(s)  6S 5D renormalized

     G-vector sticks info
     --------------------
     sticks:   dense  smooth     PW     G-vecs:    dense   smooth      PW
     Sum        1639     823    253                43895    15593    2685


     Title: 
     Lead                                                                       


     bravais-lattice index     =            2
     lattice parameter (alat)  =       9.2226  a.u.
     unit-cell volume          =     196.1075 (a.u.)^3
     number of atoms/cell      =            1
     number of atomic types    =            1
     number of electrons       =        14.00
     number of Kohn-Sham states=           11
     kinetic-energy cutoff     =      70.0000  Ry
     charge density cutoff     =     560.0000  Ry
     scf convergence threshold =      1.0E-09
     mixing beta               =       0.7000
     number of iterations used =            8  plain     mixing
     Exchange-correlation= PBE
                           (   1   4   3   4   0   0   0)

     celldm(1)=   9.222558  celldm(2)=   0.000000  celldm(3)=   0.000000
     celldm(4)=   0.000000  celldm(5)=   0.000000  celldm(6)=   0.000000

     crystal axes: (cart. coord. in units of alat)
               a(1) = (  -0.500000   0.000000   0.500000 )  
               a(2) = (   0.000000   0.500000   0.500000 )  
               a(3) = (  -0.500000   0.500000   0.000000 )  

     reciprocal axes: (cart. coord. in units 2 pi/alat)
               b(1) = ( -1.000000 -1.000000  1.000000 )  
               b(2) = (  1.000000  1.000000  1.000000 )  
               b(3) = ( -1.000000  1.000000 -1.000000 )  


     PseudoPot. # 1 for Pb read from file:
     /home/elena/qe-6.7/pseudo/Pb.pbe-dn-rrkjus_psl.1.0.0.UPF
     MD5 check sum: 1cf8f5e18580e6a90a35f98a53d336de
     Pseudo is Ultrasoft + core correction, Zval = 14.0
     Generated using &quot;atomic&quot; code by A. Dal Corso  v.6.3
     Using radial grid of 1281 points,  6 beta functions with: 
                l(1) =   0
                l(2) =   0
                l(3) =   1
                l(4) =   1
                l(5) =   2
                l(6) =   2
     Q(r) pseudized with 0 coefficients 


     atomic species   valence    mass     pseudopotential
        Pb            14.00   207.20000     Pb( 1.00)

     48 Sym. Ops., with inversion, found



   Cartesian axes

     site n.     atom                  positions (alat units)
         1           Pb  tau(   1) = (   0.0000000   0.0000000   0.0000000  )

     number of k points=   104  Methfessel-Paxton smearing, width (Ry)=  0.0400

     Number of k-points >= 100: set verbosity='high' to print them.

     Dense  grid:    43895 G-vectors     FFT dimensions: (  50,  50,  50)

     Smooth grid:    15593 G-vectors     FFT dimensions: (  36,  36,  36)

     Estimated max dynamical RAM per process >     188.49 MB

     Initial potential from superposition of free atoms

     starting charge   13.99765, renormalised to   14.00000
     Starting wfcs are    9 randomized atomic wfcs +    2 random wfcs

     total cpu time spent up to now is        2.0 secs

     Self-consistent Calculation

     iteration #  1     ecut=    70.00 Ry     beta= 0.70
     Davidson diagonalization with overlap
     ethr =  1.00E-02,  avg # of iterations =  4.4

     Threshold (ethr) on eigenvalues was too large:
     Diagonalizing with lowered threshold

     Davidson diagonalization with overlap
     c_bands:  1 eigenvalues not converged
     ethr =  1.65E-05,  avg # of iterations =  6.5

     total cpu time spent up to now is       12.4 secs

     total energy              =    -135.43502022 Ry
     estimated scf accuracy    <       0.00233078 Ry

     iteration #  2     ecut=    70.00 Ry     beta= 0.70
     Davidson diagonalization with overlap
     ethr =  1.66E-05,  avg # of iterations =  2.0

     total cpu time spent up to now is       17.0 secs

     total energy              =    -135.43551186 Ry
     estimated scf accuracy    <       0.00018427 Ry

     iteration #  3     ecut=    70.00 Ry     beta= 0.70
     Davidson diagonalization with overlap
     ethr =  1.32E-06,  avg # of iterations =  3.0

     total cpu time spent up to now is       21.3 secs

     total energy              =    -135.43554076 Ry
     estimated scf accuracy    <       0.00000776 Ry

     iteration #  4     ecut=    70.00 Ry     beta= 0.70
     Davidson diagonalization with overlap
     ethr =  5.54E-08,  avg # of iterations =  2.0

     total cpu time spent up to now is       25.9 secs

     total energy              =    -135.43554166 Ry
     estimated scf accuracy    <       0.00000060 Ry

     iteration #  5     ecut=    70.00 Ry     beta= 0.70
     Davidson diagonalization with overlap
     ethr =  4.26E-09,  avg # of iterations =  2.0

     total cpu time spent up to now is       30.4 secs

     total energy              =    -135.43554185 Ry
     estimated scf accuracy    <       0.00000009 Ry

     iteration #  6     ecut=    70.00 Ry     beta= 0.70
     Davidson diagonalization with overlap
     ethr =  6.56E-10,  avg # of iterations =  2.1

     total cpu time spent up to now is       34.3 secs

     total energy              =    -135.43554186 Ry
     estimated scf accuracy    <          2.2E-09 Ry

     iteration #  7     ecut=    70.00 Ry     beta= 0.70
     Davidson diagonalization with overlap
     ethr =  1.59E-11,  avg # of iterations =  2.5

     total cpu time spent up to now is       38.9 secs

     End of self-consistent calculation

     Number of k-points >= 100: set verbosity='high' to print the bands.

     the Fermi energy is    11.9295 ev

!    total energy              =    -135.43554186 Ry
     estimated scf accuracy    <          1.3E-10 Ry
     smearing contrib. (-TS)   =       0.00033455 Ry
     internal energy E=F+TS    =    -135.43587642 Ry

     The total energy is F=E-TS. E is the sum of the following terms:
     one-electron contribution =     -31.47687304 Ry
     hartree contribution      =      26.10480072 Ry
     xc contribution           =     -32.62522693 Ry
     ewald contribution        =     -97.43857717 Ry

     convergence has been achieved in   7 iterations

     Writing output data file /home/elena/AEP_DFT/DFT/tmp/vib/Pb.save/

     init_run     :      1.86s CPU      1.93s WALL (       1 calls)
     electrons    :     36.14s CPU     36.89s WALL (       1 calls)

     Called by init_run:
     wfcinit      :      1.27s CPU      1.28s WALL (       1 calls)
     potinit      :      0.06s CPU      0.07s WALL (       1 calls)
     hinit0       :      0.43s CPU      0.43s WALL (       1 calls)

     Called by electrons:
     c_bands      :     29.68s CPU     29.81s WALL (       8 calls)
     sum_band     :      5.56s CPU      5.91s WALL (       8 calls)
     v_of_rho     :      0.39s CPU      0.42s WALL (       8 calls)
     newd         :      0.56s CPU      0.83s WALL (       8 calls)
     mix_rho      :      0.03s CPU      0.03s WALL (       8 calls)

     Called by c_bands:
     init_us_2    :      0.75s CPU      0.76s WALL (    1768 calls)
     cegterg      :     28.50s CPU     28.63s WALL (     832 calls)

     Called by *egterg:
     cdiaghg      :      0.36s CPU      0.36s WALL (    3275 calls)
     h_psi        :     23.52s CPU     23.64s WALL (    3483 calls)
     s_psi        :      0.95s CPU      0.95s WALL (    3483 calls)
     g_psi        :      0.10s CPU      0.10s WALL (    2547 calls)

     Called by h_psi:
     h_psi:calbec :      1.14s CPU      1.15s WALL (    3483 calls)
     vloc_psi     :     21.33s CPU     21.44s WALL (    3483 calls)
     add_vuspsi   :      0.96s CPU      0.96s WALL (    3483 calls)

     General routines
     calbec       :      1.53s CPU      1.53s WALL (    4315 calls)
     fft          :      0.18s CPU      0.18s WALL (     103 calls)
     ffts         :      0.01s CPU      0.01s WALL (      16 calls)
     fftw         :     22.91s CPU     23.03s WALL (   59882 calls)
     interpolate  :      0.03s CPU      0.03s WALL (       8 calls)


     PWSCF        :     38.14s CPU     38.98s WALL


   This run was terminated on:  11:36: 0   2Jul2021            

=------------------------------------------------------------------------------=
   JOB DONE.
=------------------------------------------------------------------------------=
