
     Program PHONON v.6.7MaX starts on  2Jul2021 at 11:15:18 

     This program is part of the open-source Quantum ESPRESSO suite
     for quantum simulation of materials; please cite
         "P. Giannozzi et al., J. Phys.:Condens. Matter 21 395502 (2009);
         "P. Giannozzi et al., J. Phys.:Condens. Matter 29 465901 (2017);
          URL http://www.quantum-espresso.org", 
     in publications or presentations arising from this work. More details at
     http://www.quantum-espresso.org/quote

     Serial version
     Waiting for input...
     Reading input from standard input

     Reading xml data from directory:

     /home/elena/AEP_DFT/DFT/tmp/vib/Pb.save/
     file Pb.pbe-dn-rrkjus_psl.1.0.0.UPF: wavefunction(s)  6S 5D renormalized

     IMPORTANT: XC functional enforced from input :
     Exchange-correlation= PBE
                           (   1   4   3   4   0   0   0)
     Any further DFT definition will be discarded
     Please, verify this is what you really want


     G-vector sticks info
     --------------------
     sticks:   dense  smooth     PW     G-vecs:    dense   smooth      PW
     Sum        1639     823    253                43895    15593    2685

     Reading collected, re-writing distributed wavefunctions

     Saving dvscf to file. Distribute only q points, not irreducible represetations.

     Calculation of q =    0.0000000   0.0000000   0.0000000

     ABC                                                                        

     bravais-lattice index     =            2
     lattice parameter (alat)  =       9.2226  a.u.
     unit-cell volume          =     196.1075 (a.u.)^3
     number of atoms/cell      =            1
     number of atomic types    =            1
     kinetic-energy cut-off    =      70.0000  Ry
     charge density cut-off    =     560.0000  Ry
     convergence threshold     =      1.0E-12
     beta                      =       0.7000
     number of iterations used =            4
     Exchange-correlation= PBE
                           (   1   4   3   4   0   0   0)


     celldm(1)=    9.22256  celldm(2)=    0.00000  celldm(3)=    0.00000
     celldm(4)=    0.00000  celldm(5)=    0.00000  celldm(6)=    0.00000

     crystal axes: (cart. coord. in units of alat)
               a(1) = ( -0.5000  0.0000  0.5000 )  
               a(2) = (  0.0000  0.5000  0.5000 )  
               a(3) = ( -0.5000  0.5000  0.0000 )  

     reciprocal axes: (cart. coord. in units 2 pi/alat)
               b(1) = ( -1.0000 -1.0000  1.0000 )  
               b(2) = (  1.0000  1.0000  1.0000 )  
               b(3) = ( -1.0000  1.0000 -1.0000 )  


     Atoms inside the unit cell: 

     Cartesian axes

     site n.  atom      mass           positions (alat units)
        1     Pb 207.2000   tau(    1) = (    0.00000    0.00000    0.00000  )

     Computing dynamical matrix for 
                    q = (   0.0000000   0.0000000   0.0000000 )

     49 Sym.Ops. (with q -> -q+G )


     G cutoff = 1206.5105  (  43895 G-vectors)     FFT grid: ( 50, 50, 50)
     G cutoff =  603.2553  (  15593 G-vectors)  smooth grid: ( 36, 36, 36)

     number of k points=    47  Methfessel-Paxton smearing, width (Ry)=  0.0300
                       cart. coord. in units 2pi/alat
        k(    1) = (   0.0000000   0.0000000   0.0000000), wk =   0.0020000
        k(    2) = (  -0.1000000   0.1000000  -0.1000000), wk =   0.0160000
        k(    3) = (  -0.2000000   0.2000000  -0.2000000), wk =   0.0160000
        k(    4) = (  -0.3000000   0.3000000  -0.3000000), wk =   0.0160000
        k(    5) = (  -0.4000000   0.4000000  -0.4000000), wk =   0.0160000
        k(    6) = (   0.5000000  -0.5000000   0.5000000), wk =   0.0080000
        k(    7) = (   0.0000000   0.2000000   0.0000000), wk =   0.0120000
        k(    8) = (  -0.1000000   0.3000000  -0.1000000), wk =   0.0480000
        k(    9) = (  -0.2000000   0.4000000  -0.2000000), wk =   0.0480000
        k(   10) = (  -0.3000000   0.5000000  -0.3000000), wk =   0.0480000
        k(   11) = (   0.6000000  -0.4000000   0.6000000), wk =   0.0480000
        k(   12) = (   0.5000000  -0.3000000   0.5000000), wk =   0.0480000
        k(   13) = (   0.4000000  -0.2000000   0.4000000), wk =   0.0480000
        k(   14) = (   0.3000000  -0.1000000   0.3000000), wk =   0.0480000
        k(   15) = (   0.2000000   0.0000000   0.2000000), wk =   0.0240000
        k(   16) = (   0.0000000   0.4000000   0.0000000), wk =   0.0120000
        k(   17) = (  -0.1000000   0.5000000  -0.1000000), wk =   0.0480000
        k(   18) = (  -0.2000000   0.6000000  -0.2000000), wk =   0.0480000
        k(   19) = (   0.7000000  -0.3000000   0.7000000), wk =   0.0480000
        k(   20) = (   0.6000000  -0.2000000   0.6000000), wk =   0.0480000
        k(   21) = (   0.5000000  -0.1000000   0.5000000), wk =   0.0480000
        k(   22) = (   0.4000000   0.0000000   0.4000000), wk =   0.0240000
        k(   23) = (   0.0000000   0.6000000   0.0000000), wk =   0.0120000
        k(   24) = (  -0.1000000   0.7000000  -0.1000000), wk =   0.0480000
        k(   25) = (   0.8000000  -0.2000000   0.8000000), wk =   0.0480000
        k(   26) = (   0.7000000  -0.1000000   0.7000000), wk =   0.0480000
        k(   27) = (   0.6000000  -0.0000000   0.6000000), wk =   0.0240000
        k(   28) = (   0.0000000   0.8000000   0.0000000), wk =   0.0120000
        k(   29) = (   0.9000000  -0.1000000   0.9000000), wk =   0.0480000
        k(   30) = (   0.8000000   0.0000000   0.8000000), wk =   0.0240000
        k(   31) = (   0.0000000  -1.0000000   0.0000000), wk =   0.0060000
        k(   32) = (  -0.2000000   0.4000000   0.0000000), wk =   0.0480000
        k(   33) = (  -0.3000000   0.5000000  -0.1000000), wk =   0.0960000
        k(   34) = (   0.6000000  -0.4000000   0.8000000), wk =   0.0960000
        k(   35) = (   0.5000000  -0.3000000   0.7000000), wk =   0.0480000
        k(   36) = (  -0.2000000   0.6000000   0.0000000), wk =   0.0480000
        k(   37) = (   0.7000000  -0.3000000   0.9000000), wk =   0.0960000
        k(   38) = (   0.6000000  -0.2000000   0.8000000), wk =   0.0960000
        k(   39) = (   0.5000000  -0.1000000   0.7000000), wk =   0.0960000
        k(   40) = (   0.4000000   0.0000000   0.6000000), wk =   0.0480000
        k(   41) = (   0.8000000  -0.2000000   1.0000000), wk =   0.0480000
        k(   42) = (   0.7000000  -0.1000000   0.9000000), wk =   0.0960000
        k(   43) = (   0.6000000   0.0000000   0.8000000), wk =   0.0480000
        k(   44) = (  -0.2000000  -1.0000000   0.0000000), wk =   0.0240000
        k(   45) = (   0.6000000  -0.2000000   1.0000000), wk =   0.0480000
        k(   46) = (   0.5000000  -0.1000000   0.9000000), wk =   0.0480000
        k(   47) = (  -0.4000000  -1.0000000   0.0000000), wk =   0.0240000

     PseudoPot. # 1 for Pb read from file:
     /home/elena/qe-6.7/pseudo/Pb.pbe-dn-rrkjus_psl.1.0.0.UPF
     MD5 check sum: 1cf8f5e18580e6a90a35f98a53d336de
     Pseudo is Ultrasoft + core correction, Zval = 14.0
     Generated using &quot;atomic&quot; code by A. Dal Corso  v.6.3
     Using radial grid of 1281 points,  6 beta functions with: 
                l(1) =   0
                l(2) =   0
                l(3) =   1
                l(4) =   1
                l(5) =   2
                l(6) =   2
     Q(r) pseudized with 0 coefficients 


     Mode symmetry, O_h (m-3m)  point group:


     Atomic displacements:
     There are    1 irreducible representations

     Representation     1      3 modes -  To be done



     Alpha used in Ewald sum =   2.8000
     PHONON       :      5.64s CPU      5.74s WALL



     Representation #   1 modes #   1   2   3

     Self-consistent Calculation

     Pert. #  1: Fermi energy shift (Ry) =    -5.5145E-25     0.0000E+00
     Pert. #  2: Fermi energy shift (Ry) =     2.7573E-25     0.0000E+00
     Pert. #  3: Fermi energy shift (Ry) =    -4.1359E-25     0.0000E+00

      iter #   1 total cpu time :    23.4 secs   av.it.:   8.5
      thresh= 1.000E-02 alpha_mix =  0.700 |ddv_scf|^2 =  1.031E-06

     Pert. #  1: Fermi energy shift (Ry) =     1.3786E-25    -3.6734E-40
     Pert. #  2: Fermi energy shift (Ry) =     1.9818E-25     0.0000E+00
     Pert. #  3: Fermi energy shift (Ry) =     5.1699E-25    -9.7958E-40

      iter #   2 total cpu time :    46.9 secs   av.it.:  13.9
      thresh= 1.016E-04 alpha_mix =  0.700 |ddv_scf|^2 =  9.079E-08

     Pert. #  1: Fermi energy shift (Ry) =    -1.3786E-25    -4.5918E-41
     Pert. #  2: Fermi energy shift (Ry) =    -3.4466E-26     0.0000E+00
     Pert. #  3: Fermi energy shift (Ry) =     4.4806E-25    -1.2245E-40

      iter #   3 total cpu time :    69.9 secs   av.it.:  13.6
      thresh= 3.013E-05 alpha_mix =  0.700 |ddv_scf|^2 =  4.441E-11

     Pert. #  1: Fermi energy shift (Ry) =    -4.1359E-25    -6.8877E-41
     Pert. #  2: Fermi energy shift (Ry) =     1.0340E-25     1.4158E-40
     Pert. #  3: Fermi energy shift (Ry) =    -2.0680E-25    -3.0612E-41

      iter #   4 total cpu time :    92.9 secs   av.it.:  13.7
      thresh= 6.664E-07 alpha_mix =  0.700 |ddv_scf|^2 =  6.307E-13

     End of self-consistent calculation

     Convergence has been achieved 

     Number of q in the star =    1
     List of q in the star:
          1   0.000000000   0.000000000   0.000000000

     Diagonalizing the dynamical matrix

     q = (    0.000000000   0.000000000   0.000000000 ) 

 **************************************************************************
     freq (    1) =       0.573940 [THz] =      19.144584 [cm-1]
     freq (    2) =       0.573940 [THz] =      19.144584 [cm-1]
     freq (    3) =       0.573940 [THz] =      19.144584 [cm-1]
 **************************************************************************

     Mode symmetry, O_h (m-3m)  point group:

     freq (   1-   3) =         19.1  [cm-1]   --> T_1u G_15  G_4- I  

     PHONON       :   1m32.55s CPU   1m33.43s WALL

     INITIALIZATION: 
     phq_setup    :      0.16s CPU      0.18s WALL (       1 calls)
     phq_init     :      4.59s CPU      4.62s WALL (       1 calls)

     phq_init     :      4.59s CPU      4.62s WALL (       1 calls)
     set_drhoc    :      1.53s CPU      1.53s WALL (       3 calls)
     init_vloc    :      0.00s CPU      0.00s WALL (       1 calls)
     init_us_1    :      0.46s CPU      0.46s WALL (       1 calls)
     newd         :      0.09s CPU      0.12s WALL (       1 calls)
     dvanqq       :      0.73s CPU      0.73s WALL (       1 calls)
     drho         :      1.48s CPU      1.51s WALL (       1 calls)

     DYNAMICAL MATRIX:
     dynmat0      :      1.32s CPU      1.33s WALL (       1 calls)
     phqscf       :     86.91s CPU     87.68s WALL (       1 calls)
     dynmatrix    :      0.00s CPU      0.00s WALL (       1 calls)

     phqscf       :     86.91s CPU     87.68s WALL (       1 calls)
     solve_linter :     86.54s CPU     87.29s WALL (       1 calls)
     drhodv       :      0.37s CPU      0.38s WALL (       1 calls)

     dynmat0      :      1.32s CPU      1.33s WALL (       1 calls)
     dynmat_us    :      0.23s CPU      0.24s WALL (       1 calls)
     d2ionq       :      0.01s CPU      0.01s WALL (       1 calls)
     dynmatcc     :      1.08s CPU      1.09s WALL (       1 calls)

     dynmat_us    :      0.23s CPU      0.24s WALL (       1 calls)
     addusdynmat  :      0.00s CPU      0.00s WALL (       1 calls)

     phqscf       :     86.91s CPU     87.68s WALL (       1 calls)
     solve_linter :     86.54s CPU     87.29s WALL (       1 calls)

     solve_linter :     86.54s CPU     87.29s WALL (       1 calls)
     dvqpsi_us    :      2.12s CPU      2.13s WALL (     141 calls)
     ortho        :      0.85s CPU      0.87s WALL (     564 calls)
     cgsolve      :     70.13s CPU     70.49s WALL (     564 calls)
     incdrhoscf   :      4.92s CPU      5.01s WALL (     564 calls)
     addusddens   :      0.81s CPU      0.82s WALL (       5 calls)
     vpsifft      :      3.12s CPU      3.19s WALL (     423 calls)
     dv_of_drho   :      0.45s CPU      0.48s WALL (      12 calls)
     mix_pot      :      0.03s CPU      0.08s WALL (       4 calls)
     ef_shift     :      0.06s CPU      0.08s WALL (       5 calls)
     localdos     :      0.51s CPU      0.52s WALL (       1 calls)
     symdvscf     :      1.84s CPU      1.85s WALL (       4 calls)
     newdq        :      1.14s CPU      1.15s WALL (       4 calls)
     adddvscf     :      0.24s CPU      0.24s WALL (     423 calls)
     drhodvus     :      0.00s CPU      0.00s WALL (       1 calls)

     dvqpsi_us    :      2.12s CPU      2.13s WALL (     141 calls)
     dvqpsi_us_on :      0.34s CPU      0.34s WALL (     141 calls)

     cgsolve      :     70.13s CPU     70.49s WALL (     564 calls)
     ch_psi       :     68.43s CPU     68.78s WALL (    8465 calls)

     ch_psi       :     68.43s CPU     68.78s WALL (    8465 calls)
     h_psi        :     58.35s CPU     58.67s WALL (    8465 calls)
     last         :      7.56s CPU      7.59s WALL (    8465 calls)

     h_psi        :     58.35s CPU     58.67s WALL (    8465 calls)
     add_vuspsi   :      2.28s CPU      2.30s WALL (    8465 calls)

     incdrhoscf   :      4.92s CPU      5.01s WALL (     564 calls)
     addusdbec    :      0.42s CPU      0.42s WALL (     705 calls)

     drhodvus     :      0.00s CPU      0.00s WALL (       1 calls)

      General routines
     calbec       :      6.80s CPU      6.84s WALL (   19280 calls)
     fft          :      0.58s CPU      0.60s WALL (     286 calls)
     ffts         :      0.47s CPU      0.48s WALL (     514 calls)
     fftw         :     56.97s CPU     57.40s WALL (  123333 calls)
     davcio       :      0.21s CPU      0.29s WALL (    2481 calls)
     write_rec    :      0.00s CPU      0.03s WALL (       5 calls)


     PHONON       :   1m32.55s CPU   1m33.43s WALL


   This run was terminated on:  11:16:51   2Jul2021            

=------------------------------------------------------------------------------=
   JOB DONE.
=------------------------------------------------------------------------------=
