
     Program PHONON v.6.7MaX starts on  2Jul2021 at 11:23: 7 

     This program is part of the open-source Quantum ESPRESSO suite
     for quantum simulation of materials; please cite
         "P. Giannozzi et al., J. Phys.:Condens. Matter 21 395502 (2009);
         "P. Giannozzi et al., J. Phys.:Condens. Matter 29 465901 (2017);
          URL http://www.quantum-espresso.org", 
     in publications or presentations arising from this work. More details at
     http://www.quantum-espresso.org/quote

     Serial version
     Waiting for input...
     Reading input from standard input

     Reading xml data from directory:

     /home/elena/AEP_DFT/DFT/tmp/vib/Pb.save/
     file Pb.pbe-dn-rrkjus_psl.1.0.0.UPF: wavefunction(s)  6S 5D renormalized

     IMPORTANT: XC functional enforced from input :
     Exchange-correlation= PBE
                           (   1   4   3   4   0   0   0)
     Any further DFT definition will be discarded
     Please, verify this is what you really want


     G-vector sticks info
     --------------------
     sticks:   dense  smooth     PW     G-vecs:    dense   smooth      PW
     Sum        1639     823    253                43895    15593    2685

     Reading collected, re-writing distributed wavefunctions

     Saving dvscf to file. Distribute only q points, not irreducible represetations.

     Calculation of q =    0.0000000   0.0000000   0.0000000

     ABC                                                                        

     bravais-lattice index     =            2
     lattice parameter (alat)  =       9.2226  a.u.
     unit-cell volume          =     196.1075 (a.u.)^3
     number of atoms/cell      =            1
     number of atomic types    =            1
     kinetic-energy cut-off    =      70.0000  Ry
     charge density cut-off    =     560.0000  Ry
     convergence threshold     =      1.0E-12
     beta                      =       0.7000
     number of iterations used =            4
     Exchange-correlation= PBE
                           (   1   4   3   4   0   0   0)


     celldm(1)=    9.22256  celldm(2)=    0.00000  celldm(3)=    0.00000
     celldm(4)=    0.00000  celldm(5)=    0.00000  celldm(6)=    0.00000

     crystal axes: (cart. coord. in units of alat)
               a(1) = ( -0.5000  0.0000  0.5000 )  
               a(2) = (  0.0000  0.5000  0.5000 )  
               a(3) = ( -0.5000  0.5000  0.0000 )  

     reciprocal axes: (cart. coord. in units 2 pi/alat)
               b(1) = ( -1.0000 -1.0000  1.0000 )  
               b(2) = (  1.0000  1.0000  1.0000 )  
               b(3) = ( -1.0000  1.0000 -1.0000 )  


     Atoms inside the unit cell: 

     Cartesian axes

     site n.  atom      mass           positions (alat units)
        1     Pb 207.2000   tau(    1) = (    0.00000    0.00000    0.00000  )

     Computing dynamical matrix for 
                    q = (   0.0000000   0.0000000   0.0000000 )

     49 Sym.Ops. (with q -> -q+G )


     G cutoff = 1206.5105  (  43895 G-vectors)     FFT grid: ( 50, 50, 50)
     G cutoff =  603.2553  (  15593 G-vectors)  smooth grid: ( 36, 36, 36)

     number of k points=    72  Methfessel-Paxton smearing, width (Ry)=  0.0400
                       cart. coord. in units 2pi/alat
        k(    1) = (   0.0000000   0.0000000   0.0000000), wk =   0.0011574
        k(    2) = (  -0.0833333   0.0833333  -0.0833333), wk =   0.0092593
        k(    3) = (  -0.1666667   0.1666667  -0.1666667), wk =   0.0092593
        k(    4) = (  -0.2500000   0.2500000  -0.2500000), wk =   0.0092593
        k(    5) = (  -0.3333333   0.3333333  -0.3333333), wk =   0.0092593
        k(    6) = (  -0.4166667   0.4166667  -0.4166667), wk =   0.0092593
        k(    7) = (   0.5000000  -0.5000000   0.5000000), wk =   0.0046296
        k(    8) = (   0.0000000   0.1666667   0.0000000), wk =   0.0069444
        k(    9) = (  -0.0833333   0.2500000  -0.0833333), wk =   0.0277778
        k(   10) = (  -0.1666667   0.3333333  -0.1666667), wk =   0.0277778
        k(   11) = (  -0.2500000   0.4166667  -0.2500000), wk =   0.0277778
        k(   12) = (  -0.3333333   0.5000000  -0.3333333), wk =   0.0277778
        k(   13) = (   0.5833333  -0.4166667   0.5833333), wk =   0.0277778
        k(   14) = (   0.5000000  -0.3333333   0.5000000), wk =   0.0277778
        k(   15) = (   0.4166667  -0.2500000   0.4166667), wk =   0.0277778
        k(   16) = (   0.3333333  -0.1666667   0.3333333), wk =   0.0277778
        k(   17) = (   0.2500000  -0.0833333   0.2500000), wk =   0.0277778
        k(   18) = (   0.1666667  -0.0000000   0.1666667), wk =   0.0138889
        k(   19) = (   0.0000000   0.3333333   0.0000000), wk =   0.0069444
        k(   20) = (  -0.0833333   0.4166667  -0.0833333), wk =   0.0277778
        k(   21) = (  -0.1666667   0.5000000  -0.1666667), wk =   0.0277778
        k(   22) = (  -0.2500000   0.5833333  -0.2500000), wk =   0.0277778
        k(   23) = (   0.6666667  -0.3333333   0.6666667), wk =   0.0277778
        k(   24) = (   0.5833333  -0.2500000   0.5833333), wk =   0.0277778
        k(   25) = (   0.5000000  -0.1666667   0.5000000), wk =   0.0277778
        k(   26) = (   0.4166667  -0.0833333   0.4166667), wk =   0.0277778
        k(   27) = (   0.3333333   0.0000000   0.3333333), wk =   0.0138889
        k(   28) = (   0.0000000   0.5000000   0.0000000), wk =   0.0069444
        k(   29) = (  -0.0833333   0.5833333  -0.0833333), wk =   0.0277778
        k(   30) = (  -0.1666667   0.6666667  -0.1666667), wk =   0.0277778
        k(   31) = (   0.7500000  -0.2500000   0.7500000), wk =   0.0277778
        k(   32) = (   0.6666667  -0.1666667   0.6666667), wk =   0.0277778
        k(   33) = (   0.5833333  -0.0833333   0.5833333), wk =   0.0277778
        k(   34) = (   0.5000000   0.0000000   0.5000000), wk =   0.0138889
        k(   35) = (   0.0000000   0.6666667   0.0000000), wk =   0.0069444
        k(   36) = (  -0.0833333   0.7500000  -0.0833333), wk =   0.0277778
        k(   37) = (   0.8333333  -0.1666667   0.8333333), wk =   0.0277778
        k(   38) = (   0.7500000  -0.0833333   0.7500000), wk =   0.0277778
        k(   39) = (   0.6666667  -0.0000000   0.6666667), wk =   0.0138889
        k(   40) = (   0.0000000   0.8333333   0.0000000), wk =   0.0069444
        k(   41) = (   0.9166667  -0.0833333   0.9166667), wk =   0.0277778
        k(   42) = (   0.8333333   0.0000000   0.8333333), wk =   0.0138889
        k(   43) = (   0.0000000  -1.0000000   0.0000000), wk =   0.0034722
        k(   44) = (  -0.1666667   0.3333333   0.0000000), wk =   0.0277778
        k(   45) = (  -0.2500000   0.4166667  -0.0833333), wk =   0.0555556
        k(   46) = (  -0.3333333   0.5000000  -0.1666667), wk =   0.0555556
        k(   47) = (   0.5833333  -0.4166667   0.7500000), wk =   0.0555556
        k(   48) = (   0.5000000  -0.3333333   0.6666667), wk =   0.0277778
        k(   49) = (  -0.1666667   0.5000000   0.0000000), wk =   0.0277778
        k(   50) = (  -0.2500000   0.5833333  -0.0833333), wk =   0.0555556
        k(   51) = (   0.6666667  -0.3333333   0.8333333), wk =   0.0555556
        k(   52) = (   0.5833333  -0.2500000   0.7500000), wk =   0.0555556
        k(   53) = (   0.5000000  -0.1666667   0.6666667), wk =   0.0555556
        k(   54) = (   0.4166667  -0.0833333   0.5833333), wk =   0.0555556
        k(   55) = (   0.3333333   0.0000000   0.5000000), wk =   0.0277778
        k(   56) = (  -0.1666667   0.6666667  -0.0000000), wk =   0.0277778
        k(   57) = (   0.7500000  -0.2500000   0.9166667), wk =   0.0555556
        k(   58) = (   0.6666667  -0.1666667   0.8333333), wk =   0.0555556
        k(   59) = (   0.5833333  -0.0833333   0.7500000), wk =   0.0555556
        k(   60) = (   0.5000000   0.0000000   0.6666667), wk =   0.0277778
        k(   61) = (   0.8333333  -0.1666667   1.0000000), wk =   0.0277778
        k(   62) = (   0.7500000  -0.0833333   0.9166667), wk =   0.0555556
        k(   63) = (   0.6666667   0.0000000   0.8333333), wk =   0.0277778
        k(   64) = (  -0.1666667  -1.0000000  -0.0000000), wk =   0.0138889
        k(   65) = (   0.6666667  -0.3333333   1.0000000), wk =   0.0277778
        k(   66) = (   0.5833333  -0.2500000   0.9166667), wk =   0.0555556
        k(   67) = (   0.5000000  -0.1666667   0.8333333), wk =   0.0277778
        k(   68) = (   0.6666667  -0.1666667   1.0000000), wk =   0.0277778
        k(   69) = (   0.5833333  -0.0833333   0.9166667), wk =   0.0555556
        k(   70) = (   0.5000000   0.0000000   0.8333333), wk =   0.0277778
        k(   71) = (  -0.3333333  -1.0000000   0.0000000), wk =   0.0138889
        k(   72) = (  -0.5000000  -1.0000000   0.0000000), wk =   0.0069444

     PseudoPot. # 1 for Pb read from file:
     /home/elena/qe-6.7/pseudo/Pb.pbe-dn-rrkjus_psl.1.0.0.UPF
     MD5 check sum: 1cf8f5e18580e6a90a35f98a53d336de
     Pseudo is Ultrasoft + core correction, Zval = 14.0
     Generated using &quot;atomic&quot; code by A. Dal Corso  v.6.3
     Using radial grid of 1281 points,  6 beta functions with: 
                l(1) =   0
                l(2) =   0
                l(3) =   1
                l(4) =   1
                l(5) =   2
                l(6) =   2
     Q(r) pseudized with 0 coefficients 


     Mode symmetry, O_h (m-3m)  point group:


     Atomic displacements:
     There are    1 irreducible representations

     Representation     1      3 modes -  To be done



     Alpha used in Ewald sum =   2.8000
     PHONON       :      5.81s CPU      5.93s WALL



     Representation #   1 modes #   1   2   3

     Self-consistent Calculation

     Pert. #  1: Fermi energy shift (Ry) =     4.1359E-25     0.0000E+00
     Pert. #  2: Fermi energy shift (Ry) =    -5.1699E-25     0.0000E+00
     Pert. #  3: Fermi energy shift (Ry) =     6.8932E-26     0.0000E+00

      iter #   1 total cpu time :    31.7 secs   av.it.:   8.5
      thresh= 1.000E-02 alpha_mix =  0.700 |ddv_scf|^2 =  1.034E-06

     Pert. #  1: Fermi energy shift (Ry) =    -5.5145E-25     1.8367E-40
     Pert. #  2: Fermi energy shift (Ry) =     2.9296E-25     0.0000E+00
     Pert. #  3: Fermi energy shift (Ry) =     6.8932E-26     4.8979E-40

      iter #   2 total cpu time :    62.9 secs   av.it.:  13.9
      thresh= 1.017E-04 alpha_mix =  0.700 |ddv_scf|^2 =  9.210E-08

     Pert. #  1: Fermi energy shift (Ry) =    -1.3786E-25     4.5918E-41
     Pert. #  2: Fermi energy shift (Ry) =     9.3058E-25     0.0000E+00
     Pert. #  3: Fermi energy shift (Ry) =     3.4466E-25     1.2245E-40

      iter #   3 total cpu time :    93.6 secs   av.it.:  13.6
      thresh= 3.035E-05 alpha_mix =  0.700 |ddv_scf|^2 =  4.463E-11

     Pert. #  1: Fermi energy shift (Ry) =     2.7573E-25     0.0000E+00
     Pert. #  2: Fermi energy shift (Ry) =    -3.7912E-25    -3.8265E-42
     Pert. #  3: Fermi energy shift (Ry) =     6.8932E-26     3.4438E-41

      iter #   4 total cpu time :   124.1 secs   av.it.:  13.8
      thresh= 6.681E-07 alpha_mix =  0.700 |ddv_scf|^2 =  6.340E-13

     End of self-consistent calculation

     Convergence has been achieved 

     Number of q in the star =    1
     List of q in the star:
          1   0.000000000   0.000000000   0.000000000

     Diagonalizing the dynamical matrix

     q = (    0.000000000   0.000000000   0.000000000 ) 

 **************************************************************************
     freq (    1) =       0.572327 [THz] =      19.090777 [cm-1]
     freq (    2) =       0.572327 [THz] =      19.090777 [cm-1]
     freq (    3) =       0.572327 [THz] =      19.090777 [cm-1]
 **************************************************************************

     Mode symmetry, O_h (m-3m)  point group:

     freq (   1-   3) =         19.1  [cm-1]   --> T_1u G_15  G_4- I  

     PHONON       :   2m 3.50s CPU   2m 4.77s WALL

     INITIALIZATION: 
     phq_setup    :      0.13s CPU      0.15s WALL (       1 calls)
     phq_init     :      4.91s CPU      4.95s WALL (       1 calls)

     phq_init     :      4.91s CPU      4.95s WALL (       1 calls)
     set_drhoc    :      1.25s CPU      1.25s WALL (       3 calls)
     init_vloc    :      0.00s CPU      0.00s WALL (       1 calls)
     init_us_1    :      0.38s CPU      0.38s WALL (       1 calls)
     newd         :      0.07s CPU      0.11s WALL (       1 calls)
     dvanqq       :      0.68s CPU      0.68s WALL (       1 calls)
     drho         :      2.12s CPU      2.13s WALL (       1 calls)

     DYNAMICAL MATRIX:
     dynmat0      :      1.17s CPU      1.19s WALL (       1 calls)
     phqscf       :    117.69s CPU    118.83s WALL (       1 calls)
     dynmatrix    :      0.00s CPU      0.00s WALL (       1 calls)

     phqscf       :    117.69s CPU    118.83s WALL (       1 calls)
     solve_linter :    117.21s CPU    118.35s WALL (       1 calls)
     drhodv       :      0.48s CPU      0.48s WALL (       1 calls)

     dynmat0      :      1.17s CPU      1.19s WALL (       1 calls)
     dynmat_us    :      0.28s CPU      0.30s WALL (       1 calls)
     d2ionq       :      0.00s CPU      0.00s WALL (       1 calls)
     dynmatcc     :      0.88s CPU      0.89s WALL (       1 calls)

     dynmat_us    :      0.28s CPU      0.30s WALL (       1 calls)
     addusdynmat  :      0.00s CPU      0.00s WALL (       1 calls)

     phqscf       :    117.69s CPU    118.83s WALL (       1 calls)
     solve_linter :    117.21s CPU    118.35s WALL (       1 calls)

     solve_linter :    117.21s CPU    118.35s WALL (       1 calls)
     dvqpsi_us    :      3.10s CPU      3.13s WALL (     216 calls)
     ortho        :      1.16s CPU      1.18s WALL (     864 calls)
     cgsolve      :     96.74s CPU     97.34s WALL (     864 calls)
     incdrhoscf   :      6.84s CPU      7.01s WALL (     864 calls)
     addusddens   :      0.78s CPU      0.78s WALL (       5 calls)
     vpsifft      :      4.15s CPU      4.29s WALL (     648 calls)
     dv_of_drho   :      0.41s CPU      0.44s WALL (      12 calls)
     mix_pot      :      0.04s CPU      0.08s WALL (       4 calls)
     ef_shift     :      0.06s CPU      0.08s WALL (       5 calls)
     localdos     :      0.57s CPU      0.58s WALL (       1 calls)
     symdvscf     :      1.63s CPU      1.64s WALL (       4 calls)
     newdq        :      0.97s CPU      0.99s WALL (       4 calls)
     adddvscf     :      0.32s CPU      0.33s WALL (     648 calls)
     drhodvus     :      0.00s CPU      0.00s WALL (       1 calls)

     dvqpsi_us    :      3.10s CPU      3.13s WALL (     216 calls)
     dvqpsi_us_on :      0.47s CPU      0.48s WALL (     216 calls)

     cgsolve      :     96.74s CPU     97.34s WALL (     864 calls)
     ch_psi       :     94.31s CPU     94.89s WALL (   13040 calls)

     ch_psi       :     94.31s CPU     94.89s WALL (   13040 calls)
     h_psi        :     80.53s CPU     81.04s WALL (   13040 calls)
     last         :     10.35s CPU     10.41s WALL (   13040 calls)

     h_psi        :     80.53s CPU     81.04s WALL (   13040 calls)
     add_vuspsi   :      3.07s CPU      3.09s WALL (   13040 calls)

     incdrhoscf   :      6.84s CPU      7.01s WALL (     864 calls)
     addusdbec    :      0.60s CPU      0.60s WALL (    1080 calls)

     drhodvus     :      0.00s CPU      0.00s WALL (       1 calls)

      General routines
     calbec       :      9.37s CPU      9.44s WALL (   29680 calls)
     fft          :      0.50s CPU      0.51s WALL (     286 calls)
     ffts         :      0.57s CPU      0.58s WALL (     777 calls)
     fftw         :     77.92s CPU     78.64s WALL (  192336 calls)
     davcio       :      0.32s CPU      0.38s WALL (    3781 calls)
     write_rec    :      0.00s CPU      0.03s WALL (       5 calls)


     PHONON       :   2m 3.50s CPU   2m 4.77s WALL


   This run was terminated on:  11:25:11   2Jul2021            

=------------------------------------------------------------------------------=
   JOB DONE.
=------------------------------------------------------------------------------=
