
     Program PHONON v.6.7MaX starts on  2Jul2021 at 11:39:35 

     This program is part of the open-source Quantum ESPRESSO suite
     for quantum simulation of materials; please cite
         "P. Giannozzi et al., J. Phys.:Condens. Matter 21 395502 (2009);
         "P. Giannozzi et al., J. Phys.:Condens. Matter 29 465901 (2017);
          URL http://www.quantum-espresso.org", 
     in publications or presentations arising from this work. More details at
     http://www.quantum-espresso.org/quote

     Serial version
     Waiting for input...
     Reading input from standard input

     Reading xml data from directory:

     /home/elena/AEP_DFT/DFT/tmp/vib/Pb.save/
     file Pb.pbe-dn-rrkjus_psl.1.0.0.UPF: wavefunction(s)  6S 5D renormalized

     IMPORTANT: XC functional enforced from input :
     Exchange-correlation= PBE
                           (   1   4   3   4   0   0   0)
     Any further DFT definition will be discarded
     Please, verify this is what you really want


     G-vector sticks info
     --------------------
     sticks:   dense  smooth     PW     G-vecs:    dense   smooth      PW
     Sum        1639     823    253                43895    15593    2685

     Reading collected, re-writing distributed wavefunctions

     Saving dvscf to file. Distribute only q points, not irreducible represetations.

     Calculation of q =    0.0000000   0.0000000   0.0000000

     ABC                                                                        

     bravais-lattice index     =            2
     lattice parameter (alat)  =       9.2226  a.u.
     unit-cell volume          =     196.1075 (a.u.)^3
     number of atoms/cell      =            1
     number of atomic types    =            1
     kinetic-energy cut-off    =      70.0000  Ry
     charge density cut-off    =     560.0000  Ry
     convergence threshold     =      1.0E-12
     beta                      =       0.7000
     number of iterations used =            4
     Exchange-correlation= PBE
                           (   1   4   3   4   0   0   0)


     celldm(1)=    9.22256  celldm(2)=    0.00000  celldm(3)=    0.00000
     celldm(4)=    0.00000  celldm(5)=    0.00000  celldm(6)=    0.00000

     crystal axes: (cart. coord. in units of alat)
               a(1) = ( -0.5000  0.0000  0.5000 )  
               a(2) = (  0.0000  0.5000  0.5000 )  
               a(3) = ( -0.5000  0.5000  0.0000 )  

     reciprocal axes: (cart. coord. in units 2 pi/alat)
               b(1) = ( -1.0000 -1.0000  1.0000 )  
               b(2) = (  1.0000  1.0000  1.0000 )  
               b(3) = ( -1.0000  1.0000 -1.0000 )  


     Atoms inside the unit cell: 

     Cartesian axes

     site n.  atom      mass           positions (alat units)
        1     Pb 207.2000   tau(    1) = (    0.00000    0.00000    0.00000  )

     Computing dynamical matrix for 
                    q = (   0.0000000   0.0000000   0.0000000 )

     49 Sym.Ops. (with q -> -q+G )


     G cutoff = 1206.5105  (  43895 G-vectors)     FFT grid: ( 50, 50, 50)
     G cutoff =  603.2553  (  15593 G-vectors)  smooth grid: ( 36, 36, 36)

     number of k points=   104  Methfessel-Paxton smearing, width (Ry)=  0.0300

     PseudoPot. # 1 for Pb read from file:
     /home/elena/qe-6.7/pseudo/Pb.pbe-dn-rrkjus_psl.1.0.0.UPF
     MD5 check sum: 1cf8f5e18580e6a90a35f98a53d336de
     Pseudo is Ultrasoft + core correction, Zval = 14.0
     Generated using &quot;atomic&quot; code by A. Dal Corso  v.6.3
     Using radial grid of 1281 points,  6 beta functions with: 
                l(1) =   0
                l(2) =   0
                l(3) =   1
                l(4) =   1
                l(5) =   2
                l(6) =   2
     Q(r) pseudized with 0 coefficients 


     Mode symmetry, O_h (m-3m)  point group:


     Atomic displacements:
     There are    1 irreducible representations

     Representation     1      3 modes -  To be done



     Alpha used in Ewald sum =   2.8000
     PHONON       :      6.97s CPU      7.06s WALL



     Representation #   1 modes #   1   2   3

     Self-consistent Calculation

     Pert. #  1: Fermi energy shift (Ry) =     0.0000E+00     0.0000E+00
     Pert. #  2: Fermi energy shift (Ry) =     4.3082E-26     0.0000E+00
     Pert. #  3: Fermi energy shift (Ry) =     2.5849E-26     0.0000E+00

      iter #   1 total cpu time :    44.1 secs   av.it.:   8.6
      thresh= 1.000E-02 alpha_mix =  0.700 |ddv_scf|^2 =  1.034E-06

     Pert. #  1: Fermi energy shift (Ry) =     0.0000E+00     0.0000E+00
     Pert. #  2: Fermi energy shift (Ry) =     1.0340E-25     0.0000E+00
     Pert. #  3: Fermi energy shift (Ry) =     6.8932E-25     0.0000E+00

      iter #   2 total cpu time :    95.0 secs   av.it.:  14.1
      thresh= 1.017E-04 alpha_mix =  0.700 |ddv_scf|^2 =  9.179E-08

     Pert. #  1: Fermi energy shift (Ry) =     2.7573E-25     0.0000E+00
     Pert. #  2: Fermi energy shift (Ry) =    -2.7573E-25     0.0000E+00
     Pert. #  3: Fermi energy shift (Ry) =     2.7573E-25     0.0000E+00

      iter #   3 total cpu time :   150.7 secs   av.it.:  13.8
      thresh= 3.030E-05 alpha_mix =  0.700 |ddv_scf|^2 =  4.453E-11

     Pert. #  1: Fermi energy shift (Ry) =     2.7573E-25     4.5918E-41
     Pert. #  2: Fermi energy shift (Ry) =     3.1019E-25    -1.5306E-41
     Pert. #  3: Fermi energy shift (Ry) =     0.0000E+00     3.0612E-41

      iter #   4 total cpu time :   203.1 secs   av.it.:  14.0
      thresh= 6.673E-07 alpha_mix =  0.700 |ddv_scf|^2 =  6.303E-13

     End of self-consistent calculation

     Convergence has been achieved 

     Number of q in the star =    1
     List of q in the star:
          1   0.000000000   0.000000000   0.000000000

     Diagonalizing the dynamical matrix

     q = (    0.000000000   0.000000000   0.000000000 ) 

 **************************************************************************
     freq (    1) =       0.569556 [THz] =      18.998342 [cm-1]
     freq (    2) =       0.569556 [THz] =      18.998342 [cm-1]
     freq (    3) =       0.569556 [THz] =      18.998342 [cm-1]
 **************************************************************************

     Mode symmetry, O_h (m-3m)  point group:

     freq (   1-   3) =         19.0  [cm-1]   --> T_1u G_15  G_4- I  

     PHONON       :   3m21.20s CPU   3m24.05s WALL

     INITIALIZATION: 
     phq_setup    :      0.14s CPU      0.15s WALL (       1 calls)
     phq_init     :      6.04s CPU      6.05s WALL (       1 calls)

     phq_init     :      6.04s CPU      6.05s WALL (       1 calls)
     set_drhoc    :      1.28s CPU      1.28s WALL (       3 calls)
     init_vloc    :      0.00s CPU      0.00s WALL (       1 calls)
     init_us_1    :      0.39s CPU      0.39s WALL (       1 calls)
     newd         :      0.07s CPU      0.11s WALL (       1 calls)
     dvanqq       :      0.65s CPU      0.65s WALL (       1 calls)
     drho         :      2.92s CPU      2.92s WALL (       1 calls)

     DYNAMICAL MATRIX:
     dynmat0      :      1.45s CPU      1.46s WALL (       1 calls)
     phqscf       :    194.23s CPU    196.97s WALL (       1 calls)
     dynmatrix    :      0.00s CPU      0.00s WALL (       1 calls)

     phqscf       :    194.23s CPU    196.97s WALL (       1 calls)
     solve_linter :    193.52s CPU    196.21s WALL (       1 calls)
     drhodv       :      0.72s CPU      0.75s WALL (       1 calls)

     dynmat0      :      1.45s CPU      1.46s WALL (       1 calls)
     dynmat_us    :      0.53s CPU      0.54s WALL (       1 calls)
     d2ionq       :      0.00s CPU      0.00s WALL (       1 calls)
     dynmatcc     :      0.91s CPU      0.91s WALL (       1 calls)

     dynmat_us    :      0.53s CPU      0.54s WALL (       1 calls)
     addusdynmat  :      0.00s CPU      0.00s WALL (       1 calls)

     phqscf       :    194.23s CPU    196.97s WALL (       1 calls)
     solve_linter :    193.52s CPU    196.21s WALL (       1 calls)

     solve_linter :    193.52s CPU    196.21s WALL (       1 calls)
     dvqpsi_us    :      4.44s CPU      4.47s WALL (     312 calls)
     ortho        :      1.84s CPU      1.89s WALL (    1248 calls)
     cgsolve      :    162.37s CPU    164.23s WALL (    1248 calls)
     incdrhoscf   :     11.16s CPU     11.47s WALL (    1248 calls)
     addusddens   :      0.98s CPU      0.99s WALL (       5 calls)
     vpsifft      :      7.17s CPU      7.35s WALL (     936 calls)
     dv_of_drho   :      0.43s CPU      0.46s WALL (      12 calls)
     mix_pot      :      0.04s CPU      0.08s WALL (       4 calls)
     ef_shift     :      0.05s CPU      0.09s WALL (       5 calls)
     localdos     :      0.88s CPU      0.89s WALL (       1 calls)
     symdvscf     :      1.73s CPU      1.75s WALL (       4 calls)
     newdq        :      1.34s CPU      1.37s WALL (       4 calls)
     adddvscf     :      0.55s CPU      0.56s WALL (     936 calls)
     drhodvus     :      0.00s CPU      0.00s WALL (       1 calls)

     dvqpsi_us    :      4.44s CPU      4.47s WALL (     312 calls)
     dvqpsi_us_on :      0.70s CPU      0.71s WALL (     312 calls)

     cgsolve      :    162.37s CPU    164.23s WALL (    1248 calls)
     ch_psi       :    158.19s CPU    160.00s WALL (   19048 calls)

     ch_psi       :    158.19s CPU    160.00s WALL (   19048 calls)
     h_psi        :    135.27s CPU    136.87s WALL (   19048 calls)
     last         :     17.11s CPU     17.27s WALL (   19048 calls)

     h_psi        :    135.27s CPU    136.87s WALL (   19048 calls)
     add_vuspsi   :      5.01s CPU      5.07s WALL (   19048 calls)

     incdrhoscf   :     11.16s CPU     11.47s WALL (    1248 calls)
     addusdbec    :      0.95s CPU      0.95s WALL (    1560 calls)

     drhodvus     :      0.00s CPU      0.00s WALL (       1 calls)

      General routines
     calbec       :     15.55s CPU     15.74s WALL (   43296 calls)
     fft          :      0.52s CPU      0.55s WALL (     286 calls)
     ffts         :      0.86s CPU      0.87s WALL (    1098 calls)
     fftw         :    127.75s CPU    129.55s WALL (  277621 calls)
     davcio       :      0.49s CPU      0.59s WALL (    5445 calls)
     write_rec    :      0.00s CPU      0.03s WALL (       5 calls)


     PHONON       :   3m21.20s CPU   3m24.05s WALL


   This run was terminated on:  11:42:59   2Jul2021            

=------------------------------------------------------------------------------=
   JOB DONE.
=------------------------------------------------------------------------------=
