
     Program PWSCF v.6.7MaX starts on  2Jul2021 at 11:27:45 

     This program is part of the open-source Quantum ESPRESSO suite
     for quantum simulation of materials; please cite
         "P. Giannozzi et al., J. Phys.:Condens. Matter 21 395502 (2009);
         "P. Giannozzi et al., J. Phys.:Condens. Matter 29 465901 (2017);
          URL http://www.quantum-espresso.org", 
     in publications or presentations arising from this work. More details at
     http://www.quantum-espresso.org/quote

     Serial version
     Waiting for input...
     Reading input from standard input

     Current dimensions of program PWSCF are:
     Max number of different atomic species (ntypx) = 10
     Max number of k-points (npk) =  40000
     Max angular momentum in pseudopotentials (lmaxx) =  3
     file Pb.pbe-dn-rrkjus_psl.1.0.0.UPF: wavefunction(s)  6S 5D renormalized

     G-vector sticks info
     --------------------
     sticks:   dense  smooth     PW     G-vecs:    dense   smooth      PW
     Sum        1639     823    253                43895    15593    2685


     Title: 
     Lead                                                                       


     bravais-lattice index     =            2
     lattice parameter (alat)  =       9.2226  a.u.
     unit-cell volume          =     196.1075 (a.u.)^3
     number of atoms/cell      =            1
     number of atomic types    =            1
     number of electrons       =        14.00
     number of Kohn-Sham states=           11
     kinetic-energy cutoff     =      70.0000  Ry
     charge density cutoff     =     560.0000  Ry
     scf convergence threshold =      1.0E-09
     mixing beta               =       0.7000
     number of iterations used =            8  plain     mixing
     Exchange-correlation= PBE
                           (   1   4   3   4   0   0   0)

     celldm(1)=   9.222558  celldm(2)=   0.000000  celldm(3)=   0.000000
     celldm(4)=   0.000000  celldm(5)=   0.000000  celldm(6)=   0.000000

     crystal axes: (cart. coord. in units of alat)
               a(1) = (  -0.500000   0.000000   0.500000 )  
               a(2) = (   0.000000   0.500000   0.500000 )  
               a(3) = (  -0.500000   0.500000   0.000000 )  

     reciprocal axes: (cart. coord. in units 2 pi/alat)
               b(1) = ( -1.000000 -1.000000  1.000000 )  
               b(2) = (  1.000000  1.000000  1.000000 )  
               b(3) = ( -1.000000  1.000000 -1.000000 )  


     PseudoPot. # 1 for Pb read from file:
     /home/elena/qe-6.7/pseudo/Pb.pbe-dn-rrkjus_psl.1.0.0.UPF
     MD5 check sum: 1cf8f5e18580e6a90a35f98a53d336de
     Pseudo is Ultrasoft + core correction, Zval = 14.0
     Generated using &quot;atomic&quot; code by A. Dal Corso  v.6.3
     Using radial grid of 1281 points,  6 beta functions with: 
                l(1) =   0
                l(2) =   0
                l(3) =   1
                l(4) =   1
                l(5) =   2
                l(6) =   2
     Q(r) pseudized with 0 coefficients 


     atomic species   valence    mass     pseudopotential
        Pb            14.00   207.20000     Pb( 1.00)

     48 Sym. Ops., with inversion, found



   Cartesian axes

     site n.     atom                  positions (alat units)
         1           Pb  tau(   1) = (   0.0000000   0.0000000   0.0000000  )

     number of k points=    72  Methfessel-Paxton smearing, width (Ry)=  0.0200
                       cart. coord. in units 2pi/alat
        k(    1) = (   0.0000000   0.0000000   0.0000000), wk =   0.0011574
        k(    2) = (  -0.0833333   0.0833333  -0.0833333), wk =   0.0092593
        k(    3) = (  -0.1666667   0.1666667  -0.1666667), wk =   0.0092593
        k(    4) = (  -0.2500000   0.2500000  -0.2500000), wk =   0.0092593
        k(    5) = (  -0.3333333   0.3333333  -0.3333333), wk =   0.0092593
        k(    6) = (  -0.4166667   0.4166667  -0.4166667), wk =   0.0092593
        k(    7) = (   0.5000000  -0.5000000   0.5000000), wk =   0.0046296
        k(    8) = (   0.0000000   0.1666667   0.0000000), wk =   0.0069444
        k(    9) = (  -0.0833333   0.2500000  -0.0833333), wk =   0.0277778
        k(   10) = (  -0.1666667   0.3333333  -0.1666667), wk =   0.0277778
        k(   11) = (  -0.2500000   0.4166667  -0.2500000), wk =   0.0277778
        k(   12) = (  -0.3333333   0.5000000  -0.3333333), wk =   0.0277778
        k(   13) = (   0.5833333  -0.4166667   0.5833333), wk =   0.0277778
        k(   14) = (   0.5000000  -0.3333333   0.5000000), wk =   0.0277778
        k(   15) = (   0.4166667  -0.2500000   0.4166667), wk =   0.0277778
        k(   16) = (   0.3333333  -0.1666667   0.3333333), wk =   0.0277778
        k(   17) = (   0.2500000  -0.0833333   0.2500000), wk =   0.0277778
        k(   18) = (   0.1666667  -0.0000000   0.1666667), wk =   0.0138889
        k(   19) = (   0.0000000   0.3333333   0.0000000), wk =   0.0069444
        k(   20) = (  -0.0833333   0.4166667  -0.0833333), wk =   0.0277778
        k(   21) = (  -0.1666667   0.5000000  -0.1666667), wk =   0.0277778
        k(   22) = (  -0.2500000   0.5833333  -0.2500000), wk =   0.0277778
        k(   23) = (   0.6666667  -0.3333333   0.6666667), wk =   0.0277778
        k(   24) = (   0.5833333  -0.2500000   0.5833333), wk =   0.0277778
        k(   25) = (   0.5000000  -0.1666667   0.5000000), wk =   0.0277778
        k(   26) = (   0.4166667  -0.0833333   0.4166667), wk =   0.0277778
        k(   27) = (   0.3333333   0.0000000   0.3333333), wk =   0.0138889
        k(   28) = (   0.0000000   0.5000000   0.0000000), wk =   0.0069444
        k(   29) = (  -0.0833333   0.5833333  -0.0833333), wk =   0.0277778
        k(   30) = (  -0.1666667   0.6666667  -0.1666667), wk =   0.0277778
        k(   31) = (   0.7500000  -0.2500000   0.7500000), wk =   0.0277778
        k(   32) = (   0.6666667  -0.1666667   0.6666667), wk =   0.0277778
        k(   33) = (   0.5833333  -0.0833333   0.5833333), wk =   0.0277778
        k(   34) = (   0.5000000   0.0000000   0.5000000), wk =   0.0138889
        k(   35) = (   0.0000000   0.6666667   0.0000000), wk =   0.0069444
        k(   36) = (  -0.0833333   0.7500000  -0.0833333), wk =   0.0277778
        k(   37) = (   0.8333333  -0.1666667   0.8333333), wk =   0.0277778
        k(   38) = (   0.7500000  -0.0833333   0.7500000), wk =   0.0277778
        k(   39) = (   0.6666667  -0.0000000   0.6666667), wk =   0.0138889
        k(   40) = (   0.0000000   0.8333333   0.0000000), wk =   0.0069444
        k(   41) = (   0.9166667  -0.0833333   0.9166667), wk =   0.0277778
        k(   42) = (   0.8333333   0.0000000   0.8333333), wk =   0.0138889
        k(   43) = (   0.0000000  -1.0000000   0.0000000), wk =   0.0034722
        k(   44) = (  -0.1666667   0.3333333   0.0000000), wk =   0.0277778
        k(   45) = (  -0.2500000   0.4166667  -0.0833333), wk =   0.0555556
        k(   46) = (  -0.3333333   0.5000000  -0.1666667), wk =   0.0555556
        k(   47) = (   0.5833333  -0.4166667   0.7500000), wk =   0.0555556
        k(   48) = (   0.5000000  -0.3333333   0.6666667), wk =   0.0277778
        k(   49) = (  -0.1666667   0.5000000   0.0000000), wk =   0.0277778
        k(   50) = (  -0.2500000   0.5833333  -0.0833333), wk =   0.0555556
        k(   51) = (   0.6666667  -0.3333333   0.8333333), wk =   0.0555556
        k(   52) = (   0.5833333  -0.2500000   0.7500000), wk =   0.0555556
        k(   53) = (   0.5000000  -0.1666667   0.6666667), wk =   0.0555556
        k(   54) = (   0.4166667  -0.0833333   0.5833333), wk =   0.0555556
        k(   55) = (   0.3333333   0.0000000   0.5000000), wk =   0.0277778
        k(   56) = (  -0.1666667   0.6666667  -0.0000000), wk =   0.0277778
        k(   57) = (   0.7500000  -0.2500000   0.9166667), wk =   0.0555556
        k(   58) = (   0.6666667  -0.1666667   0.8333333), wk =   0.0555556
        k(   59) = (   0.5833333  -0.0833333   0.7500000), wk =   0.0555556
        k(   60) = (   0.5000000   0.0000000   0.6666667), wk =   0.0277778
        k(   61) = (   0.8333333  -0.1666667   1.0000000), wk =   0.0277778
        k(   62) = (   0.7500000  -0.0833333   0.9166667), wk =   0.0555556
        k(   63) = (   0.6666667   0.0000000   0.8333333), wk =   0.0277778
        k(   64) = (  -0.1666667  -1.0000000  -0.0000000), wk =   0.0138889
        k(   65) = (   0.6666667  -0.3333333   1.0000000), wk =   0.0277778
        k(   66) = (   0.5833333  -0.2500000   0.9166667), wk =   0.0555556
        k(   67) = (   0.5000000  -0.1666667   0.8333333), wk =   0.0277778
        k(   68) = (   0.6666667  -0.1666667   1.0000000), wk =   0.0277778
        k(   69) = (   0.5833333  -0.0833333   0.9166667), wk =   0.0555556
        k(   70) = (   0.5000000   0.0000000   0.8333333), wk =   0.0277778
        k(   71) = (  -0.3333333  -1.0000000   0.0000000), wk =   0.0138889
        k(   72) = (  -0.5000000  -1.0000000   0.0000000), wk =   0.0069444

     Dense  grid:    43895 G-vectors     FFT dimensions: (  50,  50,  50)

     Smooth grid:    15593 G-vectors     FFT dimensions: (  36,  36,  36)

     Estimated max dynamical RAM per process >     178.07 MB

     Initial potential from superposition of free atoms

     starting charge   13.99765, renormalised to   14.00000
     Starting wfcs are    9 randomized atomic wfcs +    2 random wfcs

     total cpu time spent up to now is        1.7 secs

     Self-consistent Calculation

     iteration #  1     ecut=    70.00 Ry     beta= 0.70
     Davidson diagonalization with overlap
     ethr =  1.00E-02,  avg # of iterations =  4.4

     Threshold (ethr) on eigenvalues was too large:
     Diagonalizing with lowered threshold

     Davidson diagonalization with overlap
     c_bands:  1 eigenvalues not converged
     ethr =  1.61E-05,  avg # of iterations =  6.7

     total cpu time spent up to now is        9.3 secs

     total energy              =    -135.43392647 Ry
     estimated scf accuracy    <       0.00228794 Ry

     iteration #  2     ecut=    70.00 Ry     beta= 0.70
     Davidson diagonalization with overlap
     ethr =  1.63E-05,  avg # of iterations =  2.2

     total cpu time spent up to now is       12.6 secs

     total energy              =    -135.43441256 Ry
     estimated scf accuracy    <       0.00018161 Ry

     iteration #  3     ecut=    70.00 Ry     beta= 0.70
     Davidson diagonalization with overlap
     ethr =  1.30E-06,  avg # of iterations =  2.5

     total cpu time spent up to now is       15.9 secs

     total energy              =    -135.43444118 Ry
     estimated scf accuracy    <       0.00000762 Ry

     iteration #  4     ecut=    70.00 Ry     beta= 0.70
     Davidson diagonalization with overlap
     ethr =  5.44E-08,  avg # of iterations =  2.0

     total cpu time spent up to now is       19.0 secs

     total energy              =    -135.43444204 Ry
     estimated scf accuracy    <       0.00000058 Ry

     iteration #  5     ecut=    70.00 Ry     beta= 0.70
     Davidson diagonalization with overlap
     ethr =  4.18E-09,  avg # of iterations =  2.3

     total cpu time spent up to now is       22.4 secs

     total energy              =    -135.43444223 Ry
     estimated scf accuracy    <       0.00000010 Ry

     iteration #  6     ecut=    70.00 Ry     beta= 0.70
     Davidson diagonalization with overlap
     ethr =  7.07E-10,  avg # of iterations =  1.7

     total cpu time spent up to now is       26.2 secs

     total energy              =    -135.43444224 Ry
     estimated scf accuracy    <          2.6E-09 Ry

     iteration #  7     ecut=    70.00 Ry     beta= 0.70
     Davidson diagonalization with overlap
     ethr =  1.88E-11,  avg # of iterations =  2.6

     total cpu time spent up to now is       30.7 secs

     End of self-consistent calculation

          k = 0.0000 0.0000 0.0000 (  1917 PWs)   bands (ev):

    -5.2258  -5.2258  -5.2258  -5.0667  -5.0667  -0.1791  19.6460  19.6460
    19.6460  21.9787  23.7545

          k =-0.0833 0.0833-0.0833 (  1947 PWs)   bands (ev):

    -5.2264  -5.2147  -5.2147  -5.0676  -5.0676  -0.0394  18.0474  19.4673
    19.4673  21.6808  24.3747

          k =-0.1667 0.1667-0.1667 (  1940 PWs)   bands (ev):

    -5.2299  -5.1925  -5.1925  -5.0607  -5.0607   0.3810  15.3556  19.0412
    19.0412  21.3632  24.9139

          k =-0.2500 0.2500-0.2500 (  1949 PWs)   bands (ev):

    -5.2383  -5.1858  -5.1858  -5.0272  -5.0272   1.0790  12.7018  18.5488
    18.5488  21.1660  23.7917

          k =-0.3333 0.3333-0.3333 (  1940 PWs)   bands (ev):

    -5.2506  -5.1966  -5.1966  -4.9750  -4.9750   2.0253  10.3080  18.1160
    18.1160  21.1173  22.8207

          k =-0.4167 0.4167-0.4167 (  1937 PWs)   bands (ev):

    -5.2616  -5.2091  -5.2091  -4.9314  -4.9314   3.0897   8.3611  17.8231
    17.8231  21.2218  22.1022

          k = 0.5000-0.5000 0.5000 (  1946 PWs)   bands (ev):

    -5.2662  -5.2143  -5.2143  -4.9148  -4.9148   3.7040   7.4507  17.7197
    17.7197  21.3873  21.7323

          k = 0.0000 0.1667 0.0000 (  1941 PWs)   bands (ev):

    -5.2386  -5.2040  -5.2040  -5.0800  -5.0575   0.0071  18.5542  18.8552
    18.8552  21.3731  24.5262

          k =-0.0833 0.2500-0.0833 (  1944 PWs)   bands (ev):

    -5.2462  -5.1809  -5.1785  -5.0903  -5.0451   0.3338  16.2643  18.2044
    18.7502  21.3991  23.4619

          k =-0.1667 0.3333-0.1667 (  1938 PWs)   bands (ev):

    -5.2482  -5.1734  -5.1641  -5.0752  -5.0139   0.9397  13.6233  17.6609
    18.2776  21.4482  23.0800

          k =-0.2500 0.4167-0.2500 (  1941 PWs)   bands (ev):

    -5.2512  -5.1879  -5.1706  -5.0286  -4.9659   1.8066  11.1613  17.3002
    17.6688  20.9598  23.2401

          k =-0.3333 0.5000-0.3333 (  1939 PWs)   bands (ev):

    -5.2549  -5.2050  -5.1844  -4.9767  -4.9262   2.8518   9.0597  17.0752
    17.1679  20.6444  23.0953

          k = 0.5833-0.4167 0.5833 (  1941 PWs)   bands (ev):

    -5.2555  -5.2149  -5.1944  -4.9400  -4.9136   3.7170   7.7105  16.6089
    17.2889  20.6193  22.7884

          k = 0.5000-0.3333 0.5000 (  1939 PWs)   bands (ev):

    -5.2509  -5.2136  -5.1950  -4.9348  -4.9303   3.4981   8.0284  16.3471
    17.6626  20.8661  22.5357

          k = 0.4167-0.2500 0.4167 (  1936 PWs)   bands (ev):

    -5.2434  -5.2018  -5.1860  -4.9837  -4.9496   2.4938   9.7114  16.3245
    18.2490  21.3390  22.4539

          k = 0.3333-0.1667 0.3333 (  1938 PWs)   bands (ev):

    -5.2368  -5.1865  -5.1731  -5.0431  -4.9884   1.4910  11.9520  16.5475
    18.9460  21.8382  22.7335

          k = 0.2500-0.0833 0.2500 (  1942 PWs)   bands (ev):

    -5.2334  -5.1802  -5.1753  -5.0814  -5.0289   0.7073  14.4663  17.0213
    19.5523  22.0198  23.6065

          k = 0.1667-0.0000 0.1667 (  1945 PWs)   bands (ev):

    -5.2313  -5.2006  -5.1932  -5.0800  -5.0543   0.1939  16.8479  17.9312
    19.7732  21.8621  24.8638

          k = 0.0000 0.3333 0.0000 (  1960 PWs)   bands (ev):

    -5.2733  -5.1431  -5.1431  -5.1195  -5.0323   0.5667  16.5966  17.3923
    17.3923  20.4347  21.9274

          k =-0.0833 0.4167-0.0833 (  1955 PWs)   bands (ev):

    -5.2862  -5.1513  -5.1144  -5.0980  -5.0060   1.0785  14.5132  16.7483
    16.9955  20.4402  21.1904

          k =-0.1667 0.5000-0.1667 (  1943 PWs)   bands (ev):

    -5.2844  -5.1734  -5.1134  -5.0600  -4.9599   1.8556  12.1385  16.2420
    16.3403  19.9402  22.4296

          k =-0.2500 0.5833-0.2500 (  1943 PWs)   bands (ev):

    -5.2769  -5.1837  -5.1263  -5.0270  -4.9211   2.8398  10.0018  15.4029
    16.2080  19.6449  24.1950

          k = 0.6667-0.3333 0.6667 (  1942 PWs)   bands (ev):

    -5.2673  -5.1860  -5.1396  -4.9978  -4.9104   3.8020   8.4144  14.6908
    16.3724  19.6446  24.6606

          k = 0.5833-0.2500 0.5833 (  1948 PWs)   bands (ev):

    -5.2517  -5.1887  -5.1462  -4.9763  -4.9347   3.9953   8.1452  14.2079
    16.8328  19.9122  24.2252

          k = 0.5000-0.1667 0.5000 (  1943 PWs)   bands (ev):

    -5.2299  -5.1962  -5.1430  -4.9883  -4.9682   3.1719   9.4355  14.0111
    17.5563  20.4396  23.9025

          k = 0.4167-0.0833 0.4167 (  1939 PWs)   bands (ev):

    -5.2146  -5.2001  -5.1307  -5.0562  -4.9759   2.1591  11.3990  14.1643
    18.4513  21.2291  23.6404

          k = 0.3333 0.0000 0.3333 (  1935 PWs)   bands (ev):

    -5.2265  -5.1837  -5.1329  -5.0997  -4.9979   1.3080  13.3396  14.9750
    19.2817  22.2761  23.0792

          k = 0.0000 0.5000 0.0000 (  1964 PWs)   bands (ev):

    -5.3206  -5.1797  -5.0572  -5.0572  -4.9975   1.4950  14.3590  16.0025
    16.0025  19.6548  19.7180

          k =-0.0833 0.5833-0.0833 (  1945 PWs)   bands (ev):

    -5.3324  -5.2072  -5.0390  -5.0192  -4.9590   2.1774  12.7179  15.1380
    15.5071  19.1216  20.1630

          k =-0.1667 0.6667-0.1667 (  1936 PWs)   bands (ev):

    -5.3227  -5.2135  -5.0492  -5.0037  -4.9173   3.0788  10.8745  13.9737
    15.3072  18.8772  21.7949

          k = 0.7500-0.2500 0.7500 (  1941 PWs)   bands (ev):

    -5.3051  -5.1877  -5.0639  -5.0118  -4.9054   4.0346   9.3307  12.9546
    15.4248  18.8850  23.8995

          k = 0.6667-0.1667 0.6667 (  1944 PWs)   bands (ev):

    -5.2843  -5.1443  -5.0760  -5.0322  -4.9298   4.5073   8.7144  12.2245
    15.8588  19.1243  26.1465

          k = 0.5833-0.0833 0.5833 (  1941 PWs)   bands (ev):

    -5.2577  -5.1355  -5.0824  -5.0269  -4.9832   3.9764   9.5280  11.8784
    16.5788  19.5940  25.8270

          k = 0.5000 0.0000 0.5000 (  1947 PWs)   bands (ev):

    -5.2279  -5.1727  -5.0885  -5.0435  -4.9934   3.0358  10.7956  12.3181
    17.5066  20.2991  25.1441

          k = 0.0000 0.6667 0.0000 (  1948 PWs)   bands (ev):

    -5.3674  -5.2457  -4.9682  -4.9682  -4.9624   2.7620  11.9491  14.9151
    14.9151  18.3327  19.1003

          k =-0.0833 0.7500-0.0833 (  1943 PWs)   bands (ev):

    -5.3724  -5.2652  -4.9748  -4.9429  -4.9147   3.5650  10.6968  13.8359
    14.6221  18.2497  19.6339

          k = 0.8333-0.1667 0.8333 (  1941 PWs)   bands (ev):

    -5.3518  -5.2519  -4.9889  -4.9526  -4.8981   4.4419   9.6629  12.3021
    14.6561  18.3274  21.3850

          k = 0.7500-0.0833 0.7500 (  1927 PWs)   bands (ev):

    -5.3233  -5.1955  -5.0059  -4.9951  -4.9179   4.9792   9.3330  10.9812
    15.0188  18.5473  23.6423

          k = 0.6667-0.0000 0.6667 (  1935 PWs)   bands (ev):

    -5.2916  -5.1133  -5.0591  -5.0319  -4.9578   4.7200   9.9770  10.2397
    15.6824  18.9635  26.1527

          k = 0.0000 0.8333 0.0000 (  1956 PWs)   bands (ev):

    -5.4015  -5.2972  -4.9367  -4.9010  -4.9010   4.2463   9.6801  14.2283
    14.2283  17.6100  18.7727

          k = 0.9167-0.0833 0.9167 (  1948 PWs)   bands (ev):

    -5.3954  -5.3006  -4.9403  -4.8972  -4.8856   4.9430   8.8950  13.2334
    14.1631  17.8495  19.3819

          k = 0.8333 0.0000 0.8333 (  1938 PWs)   bands (ev):

    -5.3626  -5.2667  -4.9602  -4.9327  -4.8975   5.2381   8.8978  11.7474
    14.4340  18.1563  21.2468

          k = 0.0000-1.0000 0.0000 (  1964 PWs)   bands (ev):

    -5.4140  -5.3165  -4.9273  -4.8761  -4.8761   5.2192   8.4302  13.9937
    13.9937  17.3873  18.6646

          k =-0.1667 0.3333 0.0000 (  1950 PWs)   bands (ev):

    -5.2556  -5.1640  -5.1459  -5.1046  -5.0223   0.7534  15.0355  16.4559
    18.7784  21.5313  22.3240

          k =-0.2500 0.4167-0.0833 (  1941 PWs)   bands (ev):

    -5.2529  -5.1737  -5.1316  -5.0826  -4.9865   1.4460  12.8585  15.5627
    18.2315  21.3623  22.7277

          k =-0.3333 0.5000-0.1667 (  1938 PWs)   bands (ev):

    -5.2465  -5.1941  -5.1419  -5.0314  -4.9500   2.3760  10.6068  15.1942
    17.4378  20.9194  23.2743

          k = 0.5833-0.4167 0.7500 (  1938 PWs)   bands (ev):

    -5.2407  -5.2136  -5.1505  -4.9870  -4.9267   3.4051   8.7468  15.0726
    16.7895  20.6789  22.9969

          k = 0.5000-0.3333 0.6667 (  1952 PWs)   bands (ev):

    -5.2358  -5.2244  -5.1535  -4.9680  -4.9205   3.9829   7.8880  15.0643
    16.5301  20.6031  22.8619

          k =-0.1667 0.5000 0.0000 (  1945 PWs)   bands (ev):

    -5.2972  -5.1750  -5.0914  -5.0597  -4.9775   1.6764  13.3404  15.1201
    16.7217  20.4622  20.7794

          k =-0.2500 0.5833-0.0833 (  1939 PWs)   bands (ev):

    -5.2879  -5.1918  -5.0943  -5.0246  -4.9450   2.5190  11.5084  14.2377
    15.9593  20.2302  22.1516

          k = 0.6667-0.3333 0.8333 (  1940 PWs)   bands (ev):

    -5.2720  -5.1919  -5.0985  -5.0153  -4.9213   3.5072   9.6891  13.7290
    15.3993  20.1583  23.9002

          k = 0.5833-0.2500 0.7500 (  1942 PWs)   bands (ev):

    -5.2572  -5.1873  -5.0916  -5.0225  -4.9192   4.2766   8.5318  13.2830
    15.3566  20.3006  23.9476

          k = 0.5000-0.1667 0.6667 (  1944 PWs)   bands (ev):

    -5.2387  -5.1928  -5.0925  -5.0197  -4.9413   4.0736   8.8418  12.9735
    15.7823  20.6477  23.6398

          k = 0.4167-0.0833 0.5833 (  1941 PWs)   bands (ev):

    -5.2156  -5.2102  -5.1048  -5.0210  -4.9670   3.1573  10.3149  12.9699
    16.5380  21.1604  23.4962

          k = 0.3333 0.0000 0.5000 (  1937 PWs)   bands (ev):

    -5.2361  -5.1913  -5.1083  -5.0629  -4.9716   2.2065  11.9266  13.6517
    17.4740  21.6475  22.9640

          k =-0.1667 0.6667-0.0000 (  1944 PWs)   bands (ev):

    -5.3394  -5.2314  -5.0303  -4.9696  -4.9380   2.9238  11.5908  14.0852
    14.8031  19.3567  20.1779

          k = 0.7500-0.2500 0.9167 (  1945 PWs)   bands (ev):

    -5.3205  -5.2317  -5.0411  -4.9612  -4.9156   3.8321  10.3152  12.9062
    14.3019  19.5569  21.6416

          k = 0.6667-0.1667 0.8333 (  1929 PWs)   bands (ev):

    -5.2958  -5.1940  -5.0556  -4.9963  -4.9084   4.6353   9.3434  11.8436
    14.3599  19.7341  23.7865

          k = 0.5833-0.0833 0.7500 (  1934 PWs)   bands (ev):

    -5.2715  -5.1387  -5.0765  -5.0355  -4.9316   4.7319   9.3716  11.1479
    14.8153  20.0962  25.4098

          k = 0.5000 0.0000 0.6667 (  1940 PWs)   bands (ev):

    -5.2435  -5.1545  -5.0899  -5.0164  -4.9743   4.0440  10.1181  11.2887
    15.5760  20.6365  25.0035

          k = 0.8333-0.1667 1.0000 (  1947 PWs)   bands (ev):

    -5.3703  -5.2783  -4.9728  -4.9171  -4.9014   4.3546   9.7386  13.4320
    13.6677  18.7635  19.8123

          k = 0.7500-0.0833 0.9167 (  1936 PWs)   bands (ev):

    -5.3399  -5.2589  -4.9869  -4.9522  -4.8884   5.0364   9.2277  11.9503
    13.6517  19.2380  21.3740

          k = 0.6667 0.0000 0.8333 (  1929 PWs)   bands (ev):

    -5.3053  -5.1968  -5.0266  -4.9990  -4.9044   5.1671   9.5755  10.6275
    14.0798  19.5959  23.6748

          k =-0.1667-1.0000-0.0000 (  1940 PWs)   bands (ev):

    -5.3815  -5.2961  -4.9444  -4.9161  -4.8760   5.2468   8.6650  13.2087
    13.3171  18.5752  19.6906

          k = 0.6667-0.3333 1.0000 (  1930 PWs)   bands (ev):

    -5.2617  -5.2084  -5.0969  -4.9729  -4.9579   3.3820  10.7931  12.6347
    15.0091  21.3572  22.3798

          k = 0.5833-0.2500 0.9167 (  1933 PWs)   bands (ev):

    -5.2344  -5.2046  -5.0967  -5.0008  -4.9289   4.2825   9.7169  11.9906
    14.2417  21.5685  23.5604

          k = 0.5000-0.1667 0.8333 (  1930 PWs)   bands (ev):

    -5.2331  -5.1877  -5.0828  -5.0363  -4.9136   4.7441   9.1129  11.8843
    13.9463  21.5761  23.5931

          k = 0.6667-0.1667 1.0000 (  1946 PWs)   bands (ev):

    -5.2828  -5.2357  -5.0564  -4.9666  -4.9025   4.6341   9.8586  11.9955
    13.1338  21.0744  21.9875

          k = 0.5833-0.0833 0.9167 (  1929 PWs)   bands (ev):

    -5.2491  -5.1970  -5.0917  -5.0070  -4.8890   5.1358   9.7628  11.0088
    12.8773  21.6309  23.8504

          k = 0.5000 0.0000 0.8333 (  1932 PWs)   bands (ev):

    -5.2331  -5.1578  -5.1303  -5.0169  -4.9038   4.9552  10.0577  10.6403
    13.3386  21.9602  24.5996

          k =-0.3333-1.0000 0.0000 (  1940 PWs)   bands (ev):

    -5.2906  -5.2478  -5.0227  -4.9866  -4.8760   5.3047   9.3479  11.7773
    12.4450  20.9648  21.8541

          k =-0.5000-1.0000 0.0000 (  1912 PWs)   bands (ev):

    -5.2160  -5.1604  -5.1604  -5.0151  -4.8758   5.3352  10.4188  10.4188
    12.1094  23.0944  24.4584

     the Fermi energy is    11.9201 ev

!    total energy              =    -135.43444224 Ry
     estimated scf accuracy    <          1.2E-10 Ry
     smearing contrib. (-TS)   =      -0.00059012 Ry
     internal energy E=F+TS    =    -135.43385212 Ry

     The total energy is F=E-TS. E is the sum of the following terms:
     one-electron contribution =     -31.47742135 Ry
     hartree contribution      =      26.10779093 Ry
     xc contribution           =     -32.62564453 Ry
     ewald contribution        =     -97.43857717 Ry

     convergence has been achieved in   7 iterations

     Writing output data file /home/elena/AEP_DFT/DFT/tmp/vib/Pb.save/

     init_run     :      1.57s CPU      1.62s WALL (       1 calls)
     electrons    :     28.13s CPU     28.94s WALL (       1 calls)

     Called by init_run:
     wfcinit      :      0.92s CPU      0.93s WALL (       1 calls)
     potinit      :      0.07s CPU      0.08s WALL (       1 calls)
     hinit0       :      0.46s CPU      0.46s WALL (       1 calls)

     Called by electrons:
     c_bands      :     22.66s CPU     22.83s WALL (       8 calls)
     sum_band     :      4.45s CPU      4.82s WALL (       8 calls)
     v_of_rho     :      0.43s CPU      0.47s WALL (       8 calls)
     newd         :      0.67s CPU      0.92s WALL (       8 calls)
     mix_rho      :      0.04s CPU      0.04s WALL (       8 calls)

     Called by c_bands:
     init_us_2    :      0.55s CPU      0.55s WALL (    1224 calls)
     cegterg      :     21.78s CPU     21.94s WALL (     576 calls)

     Called by *egterg:
     cdiaghg      :      0.26s CPU      0.26s WALL (    2265 calls)
     h_psi        :     17.99s CPU     18.13s WALL (    2409 calls)
     s_psi        :      0.73s CPU      0.74s WALL (    2409 calls)
     g_psi        :      0.07s CPU      0.07s WALL (    1761 calls)

     Called by h_psi:
     h_psi:calbec :      0.89s CPU      0.90s WALL (    2409 calls)
     vloc_psi     :     16.30s CPU     16.43s WALL (    2409 calls)
     add_vuspsi   :      0.73s CPU      0.74s WALL (    2409 calls)

     General routines
     calbec       :      1.18s CPU      1.19s WALL (    2985 calls)
     fft          :      0.19s CPU      0.19s WALL (     103 calls)
     ffts         :      0.02s CPU      0.02s WALL (      16 calls)
     fftw         :     17.18s CPU     17.31s WALL (   41466 calls)
     interpolate  :      0.03s CPU      0.03s WALL (       8 calls)


     PWSCF        :     29.86s CPU     30.73s WALL


   This run was terminated on:  11:28:16   2Jul2021            

=------------------------------------------------------------------------------=
   JOB DONE.
=------------------------------------------------------------------------------=
