
     Program PWSCF v.6.7MaX starts on  2Jul2021 at 11:11:39 

     This program is part of the open-source Quantum ESPRESSO suite
     for quantum simulation of materials; please cite
         "P. Giannozzi et al., J. Phys.:Condens. Matter 21 395502 (2009);
         "P. Giannozzi et al., J. Phys.:Condens. Matter 29 465901 (2017);
          URL http://www.quantum-espresso.org", 
     in publications or presentations arising from this work. More details at
     http://www.quantum-espresso.org/quote

     Serial version
     Waiting for input...
     Reading input from standard input

     Current dimensions of program PWSCF are:
     Max number of different atomic species (ntypx) = 10
     Max number of k-points (npk) =  40000
     Max angular momentum in pseudopotentials (lmaxx) =  3
     file Pb.pbe-dn-rrkjus_psl.1.0.0.UPF: wavefunction(s)  6S 5D renormalized

     G-vector sticks info
     --------------------
     sticks:   dense  smooth     PW     G-vecs:    dense   smooth      PW
     Sum        1639     823    253                43895    15593    2637


     Title: 
     Lead                                                                       


     bravais-lattice index     =            2
     lattice parameter (alat)  =       9.2226  a.u.
     unit-cell volume          =     196.1075 (a.u.)^3
     number of atoms/cell      =            1
     number of atomic types    =            1
     number of electrons       =        14.00
     number of Kohn-Sham states=           11
     kinetic-energy cutoff     =      70.0000  Ry
     charge density cutoff     =     560.0000  Ry
     scf convergence threshold =      1.0E-09
     mixing beta               =       0.7000
     number of iterations used =            8  plain     mixing
     Exchange-correlation= PBE
                           (   1   4   3   4   0   0   0)

     celldm(1)=   9.222558  celldm(2)=   0.000000  celldm(3)=   0.000000
     celldm(4)=   0.000000  celldm(5)=   0.000000  celldm(6)=   0.000000

     crystal axes: (cart. coord. in units of alat)
               a(1) = (  -0.500000   0.000000   0.500000 )  
               a(2) = (   0.000000   0.500000   0.500000 )  
               a(3) = (  -0.500000   0.500000   0.000000 )  

     reciprocal axes: (cart. coord. in units 2 pi/alat)
               b(1) = ( -1.000000 -1.000000  1.000000 )  
               b(2) = (  1.000000  1.000000  1.000000 )  
               b(3) = ( -1.000000  1.000000 -1.000000 )  


     PseudoPot. # 1 for Pb read from file:
     /home/elena/qe-6.7/pseudo/Pb.pbe-dn-rrkjus_psl.1.0.0.UPF
     MD5 check sum: 1cf8f5e18580e6a90a35f98a53d336de
     Pseudo is Ultrasoft + core correction, Zval = 14.0
     Generated using &quot;atomic&quot; code by A. Dal Corso  v.6.3
     Using radial grid of 1281 points,  6 beta functions with: 
                l(1) =   0
                l(2) =   0
                l(3) =   1
                l(4) =   1
                l(5) =   2
                l(6) =   2
     Q(r) pseudized with 0 coefficients 


     atomic species   valence    mass     pseudopotential
        Pb            14.00   207.20000     Pb( 1.00)

     48 Sym. Ops., with inversion, found



   Cartesian axes

     site n.     atom                  positions (alat units)
         1           Pb  tau(   1) = (   0.0000000   0.0000000   0.0000000  )

     number of k points=    29  Methfessel-Paxton smearing, width (Ry)=  0.0090
                       cart. coord. in units 2pi/alat
        k(    1) = (   0.0000000   0.0000000   0.0000000), wk =   0.0039062
        k(    2) = (  -0.1250000   0.1250000  -0.1250000), wk =   0.0312500
        k(    3) = (  -0.2500000   0.2500000  -0.2500000), wk =   0.0312500
        k(    4) = (  -0.3750000   0.3750000  -0.3750000), wk =   0.0312500
        k(    5) = (   0.5000000  -0.5000000   0.5000000), wk =   0.0156250
        k(    6) = (   0.0000000   0.2500000   0.0000000), wk =   0.0234375
        k(    7) = (  -0.1250000   0.3750000  -0.1250000), wk =   0.0937500
        k(    8) = (  -0.2500000   0.5000000  -0.2500000), wk =   0.0937500
        k(    9) = (   0.6250000  -0.3750000   0.6250000), wk =   0.0937500
        k(   10) = (   0.5000000  -0.2500000   0.5000000), wk =   0.0937500
        k(   11) = (   0.3750000  -0.1250000   0.3750000), wk =   0.0937500
        k(   12) = (   0.2500000   0.0000000   0.2500000), wk =   0.0468750
        k(   13) = (   0.0000000   0.5000000   0.0000000), wk =   0.0234375
        k(   14) = (  -0.1250000   0.6250000  -0.1250000), wk =   0.0937500
        k(   15) = (   0.7500000  -0.2500000   0.7500000), wk =   0.0937500
        k(   16) = (   0.6250000  -0.1250000   0.6250000), wk =   0.0937500
        k(   17) = (   0.5000000   0.0000000   0.5000000), wk =   0.0468750
        k(   18) = (   0.0000000   0.7500000   0.0000000), wk =   0.0234375
        k(   19) = (   0.8750000  -0.1250000   0.8750000), wk =   0.0937500
        k(   20) = (   0.7500000   0.0000000   0.7500000), wk =   0.0468750
        k(   21) = (   0.0000000  -1.0000000   0.0000000), wk =   0.0117188
        k(   22) = (  -0.2500000   0.5000000   0.0000000), wk =   0.0937500
        k(   23) = (   0.6250000  -0.3750000   0.8750000), wk =   0.1875000
        k(   24) = (   0.5000000  -0.2500000   0.7500000), wk =   0.0937500
        k(   25) = (   0.7500000  -0.2500000   1.0000000), wk =   0.0937500
        k(   26) = (   0.6250000  -0.1250000   0.8750000), wk =   0.1875000
        k(   27) = (   0.5000000   0.0000000   0.7500000), wk =   0.0937500
        k(   28) = (  -0.2500000  -1.0000000   0.0000000), wk =   0.0468750
        k(   29) = (  -0.5000000  -1.0000000   0.0000000), wk =   0.0234375

     Dense  grid:    43895 G-vectors     FFT dimensions: (  50,  50,  50)

     Smooth grid:    15593 G-vectors     FFT dimensions: (  36,  36,  36)

     Estimated max dynamical RAM per process >     164.07 MB

     Initial potential from superposition of free atoms

     starting charge   13.99765, renormalised to   14.00000
     Starting wfcs are    9 randomized atomic wfcs +    2 random wfcs

     total cpu time spent up to now is        1.3 secs

     Self-consistent Calculation

     iteration #  1     ecut=    70.00 Ry     beta= 0.70
     Davidson diagonalization with overlap
     ethr =  1.00E-02,  avg # of iterations =  4.4

     Threshold (ethr) on eigenvalues was too large:
     Diagonalizing with lowered threshold

     Davidson diagonalization with overlap
     ethr =  1.55E-05,  avg # of iterations =  6.5

     total cpu time spent up to now is        5.0 secs

     total energy              =    -135.43582262 Ry
     estimated scf accuracy    <       0.00219958 Ry

     iteration #  2     ecut=    70.00 Ry     beta= 0.70
     Davidson diagonalization with overlap
     ethr =  1.57E-05,  avg # of iterations =  2.4

     total cpu time spent up to now is        6.7 secs

     total energy              =    -135.43628818 Ry
     estimated scf accuracy    <       0.00017314 Ry

     iteration #  3     ecut=    70.00 Ry     beta= 0.70
     Davidson diagonalization with overlap
     ethr =  1.24E-06,  avg # of iterations =  3.2

     total cpu time spent up to now is        8.4 secs

     total energy              =    -135.43631553 Ry
     estimated scf accuracy    <       0.00000722 Ry

     iteration #  4     ecut=    70.00 Ry     beta= 0.70
     Davidson diagonalization with overlap
     ethr =  5.16E-08,  avg # of iterations =  2.0

     total cpu time spent up to now is       10.1 secs

     total energy              =    -135.43631635 Ry
     estimated scf accuracy    <       0.00000055 Ry

     iteration #  5     ecut=    70.00 Ry     beta= 0.70
     Davidson diagonalization with overlap
     ethr =  3.93E-09,  avg # of iterations =  2.0

     total cpu time spent up to now is       11.9 secs

     total energy              =    -135.43631653 Ry
     estimated scf accuracy    <       0.00000009 Ry

     iteration #  6     ecut=    70.00 Ry     beta= 0.70
     Davidson diagonalization with overlap
     ethr =  6.37E-10,  avg # of iterations =  1.9

     total cpu time spent up to now is       13.7 secs

     total energy              =    -135.43631654 Ry
     estimated scf accuracy    <          1.8E-09 Ry

     iteration #  7     ecut=    70.00 Ry     beta= 0.70
     Davidson diagonalization with overlap
     ethr =  1.27E-11,  avg # of iterations =  2.6

     total cpu time spent up to now is       15.6 secs

     End of self-consistent calculation

          k = 0.0000 0.0000 0.0000 (  1917 PWs)   bands (ev):

    -5.2204  -5.2204  -5.2204  -5.0612  -5.0612  -0.1774  19.6477  19.6477
    19.6477  21.9787  23.7548

          k =-0.1250 0.1250-0.1250 (  1946 PWs)   bands (ev):

    -5.2224  -5.1980  -5.1980  -5.0609  -5.0609   0.1373  16.7253  19.2747
    19.2747  21.5107  25.3614

          k =-0.2500 0.2500-0.2500 (  1949 PWs)   bands (ev):

    -5.2330  -5.1804  -5.1804  -5.0217  -5.0217   1.0808  12.7033  18.5507
    18.5507  21.1666  23.7919

          k =-0.3750 0.3750-0.3750 (  1925 PWs)   bands (ev):

    -5.2512  -5.1979  -5.1979  -4.9451  -4.9451   2.5624   9.2605  17.9501
    17.9501  21.1512  22.4294

          k = 0.5000-0.5000 0.5000 (  1946 PWs)   bands (ev):

    -5.2609  -5.2088  -5.2088  -4.9093  -4.9093   3.7063   7.4517  17.7216
    17.7216  21.3869  21.7337

          k = 0.0000 0.2500 0.0000 (  1949 PWs)   bands (ev):

    -5.2484  -5.1724  -5.1724  -5.0911  -5.0410   0.2419  17.6185  18.1427
    18.1427  20.8961  23.2958

          k =-0.1250 0.3750-0.1250 (  1944 PWs)   bands (ev):

    -5.2604  -5.1520  -5.1365  -5.0892  -5.0038   0.9760  14.1027  17.1934
    17.6696  20.9826  22.2336

          k =-0.2500 0.5000-0.2500 (  1952 PWs)   bands (ev):

    -5.2576  -5.1803  -5.1463  -5.0237  -4.9350   2.2925  10.5298  16.6124
    16.7238  20.2412  23.9171

          k = 0.6250-0.3750 0.6250 (  1943 PWs)   bands (ev):

    -5.2506  -5.1993  -5.1653  -4.9621  -4.9067   3.7475   8.0179  15.6656
    16.8577  20.1090  23.6975

          k = 0.5000-0.2500 0.5000 (  1940 PWs)   bands (ev):

    -5.2320  -5.2040  -5.1669  -4.9527  -4.9423   3.3262   8.6617  15.1915
    17.6101  20.6172  23.1807

          k = 0.3750-0.1250 0.3750 (  1943 PWs)   bands (ev):

    -5.2229  -5.1864  -5.1494  -5.0452  -4.9728   1.7968  11.6558  15.3363
    18.7988  21.7261  22.9307

          k = 0.2500 0.0000 0.2500 (  1943 PWs)   bands (ev):

    -5.2274  -5.1739  -5.1656  -5.0860  -5.0240   0.6623  15.0145  16.4528
    19.7169  22.3404  23.4909

          k = 0.0000 0.5000 0.0000 (  1964 PWs)   bands (ev):

    -5.3152  -5.1743  -5.0518  -5.0518  -4.9920   1.4968  14.3608  16.0042
    16.0042  19.6557  19.7181

          k =-0.1250 0.6250-0.1250 (  1941 PWs)   bands (ev):

    -5.3242  -5.2085  -5.0374  -5.0029  -4.9300   2.6084  11.7861  14.5569
    15.3700  18.9656  20.8961

          k = 0.7500-0.2500 0.7500 (  1941 PWs)   bands (ev):

    -5.2998  -5.1823  -5.0585  -5.0064  -4.8999   4.0368   9.3320  12.9561
    15.4265  18.8854  23.9005

          k = 0.6250-0.1250 0.6250 (  1944 PWs)   bands (ev):

    -5.2664  -5.1263  -5.0745  -5.0304  -4.9483   4.3469   8.9737  11.9953
    16.1882  19.3305  26.0370

          k = 0.5000 0.0000 0.5000 (  1947 PWs)   bands (ev):

    -5.2226  -5.1673  -5.0830  -5.0381  -4.9879   3.0378  10.7970  12.3196
    17.5085  20.2995  25.1447

          k = 0.0000 0.7500 0.0000 (  1956 PWs)   bands (ev):

    -5.3814  -5.2691  -4.9423  -4.9250  -4.9250   3.4959  10.7699  14.5191
    14.5191  17.9012  18.9097

          k = 0.8750-0.1250 0.8750 (  1951 PWs)   bands (ev):

    -5.3699  -5.2750  -4.9544  -4.9163  -4.8872   4.6952   9.3259  12.6689
    14.3729  18.0960  20.2814

          k = 0.7500 0.0000 0.7500 (  1926 PWs)   bands (ev):

    -5.3205  -5.1914  -4.9889  -4.9870  -4.9179   5.1296   9.4685  10.5696
    14.9690  18.5073  23.6095

          k = 0.0000-1.0000 0.0000 (  1964 PWs)   bands (ev):

    -5.4087  -5.3112  -4.9217  -4.8706  -4.8706   5.2217   8.4314  13.9952
    13.9952  17.3875  18.6657

          k =-0.2500 0.5000 0.0000 (  1944 PWs)   bands (ev):

    -5.2647  -5.1719  -5.1023  -5.0566  -4.9652   1.9017  12.6159  14.3907
    17.1365  21.2212  21.8126

          k = 0.6250-0.3750 0.8750 (  1944 PWs)   bands (ev):

    -5.2378  -5.1970  -5.1004  -5.0113  -4.9363   3.3079   9.9807  13.4569
    15.8549  21.0134  23.3866

          k = 0.5000-0.2500 0.7500 (  1918 PWs)   bands (ev):

    -5.2260  -5.2065  -5.0833  -5.0175  -4.9173   4.3213   8.4161  13.3594
    15.2683  20.9108  23.1985

          k = 0.7500-0.2500 1.0000 (  1944 PWs)   bands (ev):

    -5.3157  -5.2342  -5.0343  -4.9313  -4.9268   3.8054  10.5032  12.9993
    13.9575  20.0613  20.9842

          k = 0.6250-0.1250 0.8750 (  1930 PWs)   bands (ev):

    -5.2706  -5.1913  -5.0629  -4.9934  -4.8955   4.9135   9.5059  11.3845
    13.5933  20.6306  23.7955

          k = 0.5000 0.0000 0.7500 (  1930 PWs)   bands (ev):

    -5.2357  -5.1501  -5.1023  -5.0126  -4.9301   4.5399  10.0018  10.9147
    14.4099  21.2466  24.7739

          k =-0.2500-1.0000 0.0000 (  1940 PWs)   bands (ev):

    -5.3372  -5.2683  -4.9582  -4.9576  -4.8705   5.2778   8.9547  12.5098
    12.8366  19.6949  20.6957

          k =-0.5000-1.0000 0.0000 (  1912 PWs)   bands (ev):

    -5.2106  -5.1550  -5.1550  -5.0096  -4.8703   5.3377  10.4201  10.4201
    12.1104  23.0949  24.4596

     the Fermi energy is    11.8752 ev

!    total energy              =    -135.43631654 Ry
     estimated scf accuracy    <          1.4E-10 Ry
     smearing contrib. (-TS)   =       0.00007696 Ry
     internal energy E=F+TS    =    -135.43639350 Ry

     The total energy is F=E-TS. E is the sum of the following terms:
     one-electron contribution =     -31.48395415 Ry
     hartree contribution      =      26.11248427 Ry
     xc contribution           =     -32.62634646 Ry
     ewald contribution        =     -97.43857717 Ry

     convergence has been achieved in   7 iterations

     Writing output data file /home/elena/AEP_DFT/DFT/tmp/vib/Pb.save/

     init_run     :      1.09s CPU      1.15s WALL (       1 calls)
     electrons    :     13.59s CPU     14.33s WALL (       1 calls)

     Called by init_run:
     wfcinit      :      0.43s CPU      0.44s WALL (       1 calls)
     potinit      :      0.06s CPU      0.08s WALL (       1 calls)
     hinit0       :      0.48s CPU      0.48s WALL (       1 calls)

     Called by electrons:
     c_bands      :     10.04s CPU     10.08s WALL (       8 calls)
     sum_band     :      2.48s CPU      2.90s WALL (       8 calls)
     v_of_rho     :      0.45s CPU      0.50s WALL (       8 calls)
     newd         :      0.68s CPU      0.97s WALL (       8 calls)
     mix_rho      :      0.03s CPU      0.04s WALL (       8 calls)

     Called by c_bands:
     init_us_2    :      0.25s CPU      0.25s WALL (     493 calls)
     cegterg      :      9.65s CPU      9.68s WALL (     232 calls)

     Called by *egterg:
     cdiaghg      :      0.12s CPU      0.12s WALL (     930 calls)
     h_psi        :      7.98s CPU      8.02s WALL (     988 calls)
     s_psi        :      0.32s CPU      0.32s WALL (     988 calls)
     g_psi        :      0.03s CPU      0.03s WALL (     727 calls)

     Called by h_psi:
     h_psi:calbec :      0.38s CPU      0.38s WALL (     988 calls)
     vloc_psi     :      7.25s CPU      7.29s WALL (     988 calls)
     add_vuspsi   :      0.32s CPU      0.32s WALL (     988 calls)

     General routines
     calbec       :      0.51s CPU      0.51s WALL (    1220 calls)
     fft          :      0.21s CPU      0.22s WALL (     103 calls)
     ffts         :      0.02s CPU      0.02s WALL (      16 calls)
     fftw         :      7.82s CPU      7.87s WALL (   16696 calls)
     interpolate  :      0.03s CPU      0.03s WALL (       8 calls)


     PWSCF        :     14.83s CPU     15.66s WALL


   This run was terminated on:  11:11:54   2Jul2021            

=------------------------------------------------------------------------------=
   JOB DONE.
=------------------------------------------------------------------------------=
