
     Program PWSCF v.6.7MaX starts on  2Jul2021 at 11:10:22 

     This program is part of the open-source Quantum ESPRESSO suite
     for quantum simulation of materials; please cite
         "P. Giannozzi et al., J. Phys.:Condens. Matter 21 395502 (2009);
         "P. Giannozzi et al., J. Phys.:Condens. Matter 29 465901 (2017);
          URL http://www.quantum-espresso.org", 
     in publications or presentations arising from this work. More details at
     http://www.quantum-espresso.org/quote

     Serial version
     Waiting for input...
     Reading input from standard input

     Current dimensions of program PWSCF are:
     Max number of different atomic species (ntypx) = 10
     Max number of k-points (npk) =  40000
     Max angular momentum in pseudopotentials (lmaxx) =  3
     file Pb.pbe-dn-rrkjus_psl.1.0.0.UPF: wavefunction(s)  6S 5D renormalized

     G-vector sticks info
     --------------------
     sticks:   dense  smooth     PW     G-vecs:    dense   smooth      PW
     Sum        1639     823    253                43895    15593    2637


     Title: 
     Lead                                                                       


     bravais-lattice index     =            2
     lattice parameter (alat)  =       9.2226  a.u.
     unit-cell volume          =     196.1075 (a.u.)^3
     number of atoms/cell      =            1
     number of atomic types    =            1
     number of electrons       =        14.00
     number of Kohn-Sham states=           11
     kinetic-energy cutoff     =      70.0000  Ry
     charge density cutoff     =     560.0000  Ry
     scf convergence threshold =      1.0E-09
     mixing beta               =       0.7000
     number of iterations used =            8  plain     mixing
     Exchange-correlation= PBE
                           (   1   4   3   4   0   0   0)

     celldm(1)=   9.222558  celldm(2)=   0.000000  celldm(3)=   0.000000
     celldm(4)=   0.000000  celldm(5)=   0.000000  celldm(6)=   0.000000

     crystal axes: (cart. coord. in units of alat)
               a(1) = (  -0.500000   0.000000   0.500000 )  
               a(2) = (   0.000000   0.500000   0.500000 )  
               a(3) = (  -0.500000   0.500000   0.000000 )  

     reciprocal axes: (cart. coord. in units 2 pi/alat)
               b(1) = ( -1.000000 -1.000000  1.000000 )  
               b(2) = (  1.000000  1.000000  1.000000 )  
               b(3) = ( -1.000000  1.000000 -1.000000 )  


     PseudoPot. # 1 for Pb read from file:
     /home/elena/qe-6.7/pseudo/Pb.pbe-dn-rrkjus_psl.1.0.0.UPF
     MD5 check sum: 1cf8f5e18580e6a90a35f98a53d336de
     Pseudo is Ultrasoft + core correction, Zval = 14.0
     Generated using &quot;atomic&quot; code by A. Dal Corso  v.6.3
     Using radial grid of 1281 points,  6 beta functions with: 
                l(1) =   0
                l(2) =   0
                l(3) =   1
                l(4) =   1
                l(5) =   2
                l(6) =   2
     Q(r) pseudized with 0 coefficients 


     atomic species   valence    mass     pseudopotential
        Pb            14.00   207.20000     Pb( 1.00)

     48 Sym. Ops., with inversion, found



   Cartesian axes

     site n.     atom                  positions (alat units)
         1           Pb  tau(   1) = (   0.0000000   0.0000000   0.0000000  )

     number of k points=    29  Methfessel-Paxton smearing, width (Ry)=  0.0100
                       cart. coord. in units 2pi/alat
        k(    1) = (   0.0000000   0.0000000   0.0000000), wk =   0.0039062
        k(    2) = (  -0.1250000   0.1250000  -0.1250000), wk =   0.0312500
        k(    3) = (  -0.2500000   0.2500000  -0.2500000), wk =   0.0312500
        k(    4) = (  -0.3750000   0.3750000  -0.3750000), wk =   0.0312500
        k(    5) = (   0.5000000  -0.5000000   0.5000000), wk =   0.0156250
        k(    6) = (   0.0000000   0.2500000   0.0000000), wk =   0.0234375
        k(    7) = (  -0.1250000   0.3750000  -0.1250000), wk =   0.0937500
        k(    8) = (  -0.2500000   0.5000000  -0.2500000), wk =   0.0937500
        k(    9) = (   0.6250000  -0.3750000   0.6250000), wk =   0.0937500
        k(   10) = (   0.5000000  -0.2500000   0.5000000), wk =   0.0937500
        k(   11) = (   0.3750000  -0.1250000   0.3750000), wk =   0.0937500
        k(   12) = (   0.2500000   0.0000000   0.2500000), wk =   0.0468750
        k(   13) = (   0.0000000   0.5000000   0.0000000), wk =   0.0234375
        k(   14) = (  -0.1250000   0.6250000  -0.1250000), wk =   0.0937500
        k(   15) = (   0.7500000  -0.2500000   0.7500000), wk =   0.0937500
        k(   16) = (   0.6250000  -0.1250000   0.6250000), wk =   0.0937500
        k(   17) = (   0.5000000   0.0000000   0.5000000), wk =   0.0468750
        k(   18) = (   0.0000000   0.7500000   0.0000000), wk =   0.0234375
        k(   19) = (   0.8750000  -0.1250000   0.8750000), wk =   0.0937500
        k(   20) = (   0.7500000   0.0000000   0.7500000), wk =   0.0468750
        k(   21) = (   0.0000000  -1.0000000   0.0000000), wk =   0.0117188
        k(   22) = (  -0.2500000   0.5000000   0.0000000), wk =   0.0937500
        k(   23) = (   0.6250000  -0.3750000   0.8750000), wk =   0.1875000
        k(   24) = (   0.5000000  -0.2500000   0.7500000), wk =   0.0937500
        k(   25) = (   0.7500000  -0.2500000   1.0000000), wk =   0.0937500
        k(   26) = (   0.6250000  -0.1250000   0.8750000), wk =   0.1875000
        k(   27) = (   0.5000000   0.0000000   0.7500000), wk =   0.0937500
        k(   28) = (  -0.2500000  -1.0000000   0.0000000), wk =   0.0468750
        k(   29) = (  -0.5000000  -1.0000000   0.0000000), wk =   0.0234375

     Dense  grid:    43895 G-vectors     FFT dimensions: (  50,  50,  50)

     Smooth grid:    15593 G-vectors     FFT dimensions: (  36,  36,  36)

     Estimated max dynamical RAM per process >     164.07 MB

     Initial potential from superposition of free atoms

     starting charge   13.99765, renormalised to   14.00000
     Starting wfcs are    9 randomized atomic wfcs +    2 random wfcs

     total cpu time spent up to now is        1.5 secs

     Self-consistent Calculation

     iteration #  1     ecut=    70.00 Ry     beta= 0.70
     Davidson diagonalization with overlap
     ethr =  1.00E-02,  avg # of iterations =  4.4

     Threshold (ethr) on eigenvalues was too large:
     Diagonalizing with lowered threshold

     Davidson diagonalization with overlap
     ethr =  1.56E-05,  avg # of iterations =  6.5

     total cpu time spent up to now is        5.4 secs

     total energy              =    -135.43581344 Ry
     estimated scf accuracy    <       0.00220586 Ry

     iteration #  2     ecut=    70.00 Ry     beta= 0.70
     Davidson diagonalization with overlap
     ethr =  1.58E-05,  avg # of iterations =  2.4

     total cpu time spent up to now is        7.2 secs

     total energy              =    -135.43628018 Ry
     estimated scf accuracy    <       0.00017365 Ry

     iteration #  3     ecut=    70.00 Ry     beta= 0.70
     Davidson diagonalization with overlap
     ethr =  1.24E-06,  avg # of iterations =  3.2

     total cpu time spent up to now is        9.0 secs

     total energy              =    -135.43630765 Ry
     estimated scf accuracy    <       0.00000726 Ry

     iteration #  4     ecut=    70.00 Ry     beta= 0.70
     Davidson diagonalization with overlap
     ethr =  5.18E-08,  avg # of iterations =  2.0

     total cpu time spent up to now is       10.8 secs

     total energy              =    -135.43630847 Ry
     estimated scf accuracy    <       0.00000055 Ry

     iteration #  5     ecut=    70.00 Ry     beta= 0.70
     Davidson diagonalization with overlap
     ethr =  3.92E-09,  avg # of iterations =  2.0

     total cpu time spent up to now is       12.7 secs

     total energy              =    -135.43630865 Ry
     estimated scf accuracy    <       0.00000009 Ry

     iteration #  6     ecut=    70.00 Ry     beta= 0.70
     Davidson diagonalization with overlap
     ethr =  6.49E-10,  avg # of iterations =  2.0

     total cpu time spent up to now is       14.5 secs

     total energy              =    -135.43630866 Ry
     estimated scf accuracy    <          1.3E-09 Ry

     iteration #  7     ecut=    70.00 Ry     beta= 0.70
     Davidson diagonalization with overlap
     ethr =  8.99E-12,  avg # of iterations =  2.9

     total cpu time spent up to now is       16.3 secs

     End of self-consistent calculation

          k = 0.0000 0.0000 0.0000 (  1917 PWs)   bands (ev):

    -5.2207  -5.2207  -5.2207  -5.0615  -5.0615  -0.1775  19.6476  19.6476
    19.6476  21.9787  23.7547

          k =-0.1250 0.1250-0.1250 (  1946 PWs)   bands (ev):

    -5.2227  -5.1983  -5.1983  -5.0612  -5.0612   0.1372  16.7252  19.2746
    19.2746  21.5106  25.3613

          k =-0.2500 0.2500-0.2500 (  1949 PWs)   bands (ev):

    -5.2333  -5.1808  -5.1808  -5.0221  -5.0221   1.0806  12.7032  18.5506
    18.5506  21.1665  23.7919

          k =-0.3750 0.3750-0.3750 (  1925 PWs)   bands (ev):

    -5.2515  -5.1983  -5.1983  -4.9454  -4.9454   2.5623   9.2604  17.9500
    17.9500  21.1512  22.4294

          k = 0.5000-0.5000 0.5000 (  1946 PWs)   bands (ev):

    -5.2612  -5.2092  -5.2092  -4.9097  -4.9097   3.7062   7.4516  17.7215
    17.7215  21.3869  21.7336

          k = 0.0000 0.2500 0.0000 (  1949 PWs)   bands (ev):

    -5.2487  -5.1727  -5.1727  -5.0915  -5.0413   0.2418  17.6184  18.1426
    18.1426  20.8961  23.2958

          k =-0.1250 0.3750-0.1250 (  1944 PWs)   bands (ev):

    -5.2607  -5.1523  -5.1368  -5.0895  -5.0041   0.9759  14.1026  17.1933
    17.6695  20.9826  22.2335

          k =-0.2500 0.5000-0.2500 (  1952 PWs)   bands (ev):

    -5.2579  -5.1806  -5.1466  -5.0241  -4.9353   2.2923  10.5297  16.6123
    16.7236  20.2411  23.9170

          k = 0.6250-0.3750 0.6250 (  1943 PWs)   bands (ev):

    -5.2509  -5.1996  -5.1656  -4.9625  -4.9071   3.7474   8.0178  15.6655
    16.8576  20.1090  23.6974

          k = 0.5000-0.2500 0.5000 (  1940 PWs)   bands (ev):

    -5.2323  -5.2044  -5.1673  -4.9530  -4.9426   3.3260   8.6616  15.1914
    17.6100  20.6172  23.1806

          k = 0.3750-0.1250 0.3750 (  1943 PWs)   bands (ev):

    -5.2232  -5.1868  -5.1497  -5.0455  -4.9732   1.7966  11.6558  15.3362
    18.7987  21.7261  22.9306

          k = 0.2500 0.0000 0.2500 (  1943 PWs)   bands (ev):

    -5.2277  -5.1742  -5.1659  -5.0863  -5.0243   0.6622  15.0144  16.4527
    19.7168  22.3403  23.4909

          k = 0.0000 0.5000 0.0000 (  1964 PWs)   bands (ev):

    -5.3156  -5.1746  -5.0521  -5.0521  -4.9923   1.4966  14.3607  16.0041
    16.0041  19.6556  19.7181

          k =-0.1250 0.6250-0.1250 (  1941 PWs)   bands (ev):

    -5.3246  -5.2088  -5.0377  -5.0032  -4.9304   2.6083  11.7860  14.5568
    15.3699  18.9656  20.8960

          k = 0.7500-0.2500 0.7500 (  1941 PWs)   bands (ev):

    -5.3001  -5.1826  -5.0588  -5.0067  -4.9002   4.0367   9.3319  12.9560
    15.4264  18.8854  23.9005

          k = 0.6250-0.1250 0.6250 (  1944 PWs)   bands (ev):

    -5.2667  -5.1267  -5.0749  -5.0307  -4.9487   4.3467   8.9736  11.9952
    16.1881  19.3304  26.0369

          k = 0.5000 0.0000 0.5000 (  1947 PWs)   bands (ev):

    -5.2229  -5.1677  -5.0834  -5.0384  -4.9883   3.0377  10.7969  12.3195
    17.5083  20.2994  25.1447

          k = 0.0000 0.7500 0.0000 (  1956 PWs)   bands (ev):

    -5.3817  -5.2695  -4.9427  -4.9253  -4.9253   3.4958  10.7698  14.5190
    14.5190  17.9011  18.9096

          k = 0.8750-0.1250 0.8750 (  1951 PWs)   bands (ev):

    -5.3703  -5.2753  -4.9547  -4.9166  -4.8875   4.6951   9.3258  12.6688
    14.3728  18.0960  20.2813

          k = 0.7500 0.0000 0.7500 (  1926 PWs)   bands (ev):

    -5.3208  -5.1918  -4.9893  -4.9874  -4.9183   5.1294   9.4684  10.5695
    14.9689  18.5072  23.6094

          k = 0.0000-1.0000 0.0000 (  1964 PWs)   bands (ev):

    -5.4090  -5.3115  -4.9221  -4.8709  -4.8709   5.2215   8.4313  13.9951
    13.9951  17.3874  18.6656

          k =-0.2500 0.5000 0.0000 (  1944 PWs)   bands (ev):

    -5.2650  -5.1722  -5.1026  -5.0569  -4.9656   1.9016  12.6158  14.3906
    17.1364  21.2212  21.8126

          k = 0.6250-0.3750 0.8750 (  1944 PWs)   bands (ev):

    -5.2381  -5.1974  -5.1008  -5.0117  -4.9367   3.3078   9.9806  13.4568
    15.8548  21.0134  23.3865

          k = 0.5000-0.2500 0.7500 (  1918 PWs)   bands (ev):

    -5.2264  -5.2068  -5.0837  -5.0178  -4.9177   4.3211   8.4160  13.3593
    15.2682  20.9107  23.1984

          k = 0.7500-0.2500 1.0000 (  1944 PWs)   bands (ev):

    -5.3160  -5.2346  -5.0347  -4.9316  -4.9271   3.8053  10.5031  12.9992
    13.9575  20.0613  20.9841

          k = 0.6250-0.1250 0.8750 (  1930 PWs)   bands (ev):

    -5.2710  -5.1916  -5.0632  -4.9937  -4.8959   4.9134   9.5058  11.3844
    13.5932  20.6306  23.7954

          k = 0.5000 0.0000 0.7500 (  1930 PWs)   bands (ev):

    -5.2361  -5.1504  -5.1026  -5.0129  -4.9304   4.5398  10.0017  10.9146
    14.4098  21.2465  24.7738

          k =-0.2500-1.0000 0.0000 (  1940 PWs)   bands (ev):

    -5.3376  -5.2686  -4.9585  -4.9579  -4.8708   5.2776   8.9546  12.5097
    12.8365  19.6948  20.6956

          k =-0.5000-1.0000 0.0000 (  1912 PWs)   bands (ev):

    -5.2110  -5.1553  -5.1553  -5.0099  -4.8706   5.3375  10.4201  10.4201
    12.1103  23.0949  24.4595

     the Fermi energy is    11.8765 ev

!    total energy              =    -135.43630866 Ry
     estimated scf accuracy    <          2.0E-10 Ry
     smearing contrib. (-TS)   =       0.00007157 Ry
     internal energy E=F+TS    =    -135.43638024 Ry

     The total energy is F=E-TS. E is the sum of the following terms:
     one-electron contribution =     -31.48366739 Ry
     hartree contribution      =      26.11216425 Ry
     xc contribution           =     -32.62629993 Ry
     ewald contribution        =     -97.43857717 Ry

     convergence has been achieved in   7 iterations

     Writing output data file /home/elena/AEP_DFT/DFT/tmp/vib/Pb.save/

     init_run     :      1.26s CPU      1.31s WALL (       1 calls)
     electrons    :     14.12s CPU     14.85s WALL (       1 calls)

     Called by init_run:
     wfcinit      :      0.52s CPU      0.52s WALL (       1 calls)
     potinit      :      0.08s CPU      0.08s WALL (       1 calls)
     hinit0       :      0.54s CPU      0.54s WALL (       1 calls)

     Called by electrons:
     c_bands      :     10.42s CPU     10.46s WALL (       8 calls)
     sum_band     :      2.56s CPU      2.96s WALL (       8 calls)
     v_of_rho     :      0.49s CPU      0.53s WALL (       8 calls)
     newd         :      0.71s CPU      1.01s WALL (       8 calls)
     mix_rho      :      0.04s CPU      0.04s WALL (       8 calls)

     Called by c_bands:
     init_us_2    :      0.26s CPU      0.26s WALL (     493 calls)
     cegterg      :     10.02s CPU     10.06s WALL (     232 calls)

     Called by *egterg:
     cdiaghg      :      0.13s CPU      0.13s WALL (     940 calls)
     h_psi        :      8.35s CPU      8.38s WALL (     998 calls)
     s_psi        :      0.33s CPU      0.33s WALL (     998 calls)
     g_psi        :      0.04s CPU      0.04s WALL (     737 calls)

     Called by h_psi:
     h_psi:calbec :      0.40s CPU      0.40s WALL (     998 calls)
     vloc_psi     :      7.58s CPU      7.61s WALL (     998 calls)
     add_vuspsi   :      0.34s CPU      0.34s WALL (     998 calls)

     General routines
     calbec       :      0.54s CPU      0.54s WALL (    1230 calls)
     fft          :      0.23s CPU      0.23s WALL (     103 calls)
     ffts         :      0.02s CPU      0.02s WALL (      16 calls)
     fftw         :      8.11s CPU      8.14s WALL (   16816 calls)
     interpolate  :      0.03s CPU      0.03s WALL (       8 calls)


     PWSCF        :     15.58s CPU     16.38s WALL


   This run was terminated on:  11:10:38   2Jul2021            

=------------------------------------------------------------------------------=
   JOB DONE.
=------------------------------------------------------------------------------=
