
     Program PWSCF v.6.7MaX starts on  2Jul2021 at 11: 9: 4 

     This program is part of the open-source Quantum ESPRESSO suite
     for quantum simulation of materials; please cite
         "P. Giannozzi et al., J. Phys.:Condens. Matter 21 395502 (2009);
         "P. Giannozzi et al., J. Phys.:Condens. Matter 29 465901 (2017);
          URL http://www.quantum-espresso.org", 
     in publications or presentations arising from this work. More details at
     http://www.quantum-espresso.org/quote

     Serial version
     Waiting for input...
     Reading input from standard input

     Current dimensions of program PWSCF are:
     Max number of different atomic species (ntypx) = 10
     Max number of k-points (npk) =  40000
     Max angular momentum in pseudopotentials (lmaxx) =  3
     file Pb.pbe-dn-rrkjus_psl.1.0.0.UPF: wavefunction(s)  6S 5D renormalized

     G-vector sticks info
     --------------------
     sticks:   dense  smooth     PW     G-vecs:    dense   smooth      PW
     Sum        1639     823    253                43895    15593    2637


     Title: 
     Lead                                                                       


     bravais-lattice index     =            2
     lattice parameter (alat)  =       9.2226  a.u.
     unit-cell volume          =     196.1075 (a.u.)^3
     number of atoms/cell      =            1
     number of atomic types    =            1
     number of electrons       =        14.00
     number of Kohn-Sham states=           11
     kinetic-energy cutoff     =      70.0000  Ry
     charge density cutoff     =     560.0000  Ry
     scf convergence threshold =      1.0E-09
     mixing beta               =       0.7000
     number of iterations used =            8  plain     mixing
     Exchange-correlation= PBE
                           (   1   4   3   4   0   0   0)

     celldm(1)=   9.222558  celldm(2)=   0.000000  celldm(3)=   0.000000
     celldm(4)=   0.000000  celldm(5)=   0.000000  celldm(6)=   0.000000

     crystal axes: (cart. coord. in units of alat)
               a(1) = (  -0.500000   0.000000   0.500000 )  
               a(2) = (   0.000000   0.500000   0.500000 )  
               a(3) = (  -0.500000   0.500000   0.000000 )  

     reciprocal axes: (cart. coord. in units 2 pi/alat)
               b(1) = ( -1.000000 -1.000000  1.000000 )  
               b(2) = (  1.000000  1.000000  1.000000 )  
               b(3) = ( -1.000000  1.000000 -1.000000 )  


     PseudoPot. # 1 for Pb read from file:
     /home/elena/qe-6.7/pseudo/Pb.pbe-dn-rrkjus_psl.1.0.0.UPF
     MD5 check sum: 1cf8f5e18580e6a90a35f98a53d336de
     Pseudo is Ultrasoft + core correction, Zval = 14.0
     Generated using &quot;atomic&quot; code by A. Dal Corso  v.6.3
     Using radial grid of 1281 points,  6 beta functions with: 
                l(1) =   0
                l(2) =   0
                l(3) =   1
                l(4) =   1
                l(5) =   2
                l(6) =   2
     Q(r) pseudized with 0 coefficients 


     atomic species   valence    mass     pseudopotential
        Pb            14.00   207.20000     Pb( 1.00)

     48 Sym. Ops., with inversion, found



   Cartesian axes

     site n.     atom                  positions (alat units)
         1           Pb  tau(   1) = (   0.0000000   0.0000000   0.0000000  )

     number of k points=    29  Methfessel-Paxton smearing, width (Ry)=  0.0200
                       cart. coord. in units 2pi/alat
        k(    1) = (   0.0000000   0.0000000   0.0000000), wk =   0.0039062
        k(    2) = (  -0.1250000   0.1250000  -0.1250000), wk =   0.0312500
        k(    3) = (  -0.2500000   0.2500000  -0.2500000), wk =   0.0312500
        k(    4) = (  -0.3750000   0.3750000  -0.3750000), wk =   0.0312500
        k(    5) = (   0.5000000  -0.5000000   0.5000000), wk =   0.0156250
        k(    6) = (   0.0000000   0.2500000   0.0000000), wk =   0.0234375
        k(    7) = (  -0.1250000   0.3750000  -0.1250000), wk =   0.0937500
        k(    8) = (  -0.2500000   0.5000000  -0.2500000), wk =   0.0937500
        k(    9) = (   0.6250000  -0.3750000   0.6250000), wk =   0.0937500
        k(   10) = (   0.5000000  -0.2500000   0.5000000), wk =   0.0937500
        k(   11) = (   0.3750000  -0.1250000   0.3750000), wk =   0.0937500
        k(   12) = (   0.2500000   0.0000000   0.2500000), wk =   0.0468750
        k(   13) = (   0.0000000   0.5000000   0.0000000), wk =   0.0234375
        k(   14) = (  -0.1250000   0.6250000  -0.1250000), wk =   0.0937500
        k(   15) = (   0.7500000  -0.2500000   0.7500000), wk =   0.0937500
        k(   16) = (   0.6250000  -0.1250000   0.6250000), wk =   0.0937500
        k(   17) = (   0.5000000   0.0000000   0.5000000), wk =   0.0468750
        k(   18) = (   0.0000000   0.7500000   0.0000000), wk =   0.0234375
        k(   19) = (   0.8750000  -0.1250000   0.8750000), wk =   0.0937500
        k(   20) = (   0.7500000   0.0000000   0.7500000), wk =   0.0468750
        k(   21) = (   0.0000000  -1.0000000   0.0000000), wk =   0.0117188
        k(   22) = (  -0.2500000   0.5000000   0.0000000), wk =   0.0937500
        k(   23) = (   0.6250000  -0.3750000   0.8750000), wk =   0.1875000
        k(   24) = (   0.5000000  -0.2500000   0.7500000), wk =   0.0937500
        k(   25) = (   0.7500000  -0.2500000   1.0000000), wk =   0.0937500
        k(   26) = (   0.6250000  -0.1250000   0.8750000), wk =   0.1875000
        k(   27) = (   0.5000000   0.0000000   0.7500000), wk =   0.0937500
        k(   28) = (  -0.2500000  -1.0000000   0.0000000), wk =   0.0468750
        k(   29) = (  -0.5000000  -1.0000000   0.0000000), wk =   0.0234375

     Dense  grid:    43895 G-vectors     FFT dimensions: (  50,  50,  50)

     Smooth grid:    15593 G-vectors     FFT dimensions: (  36,  36,  36)

     Estimated max dynamical RAM per process >     164.07 MB

     Initial potential from superposition of free atoms

     starting charge   13.99765, renormalised to   14.00000
     Starting wfcs are    9 randomized atomic wfcs +    2 random wfcs

     total cpu time spent up to now is        1.6 secs

     Self-consistent Calculation

     iteration #  1     ecut=    70.00 Ry     beta= 0.70
     Davidson diagonalization with overlap
     ethr =  1.00E-02,  avg # of iterations =  4.4

     Threshold (ethr) on eigenvalues was too large:
     Diagonalizing with lowered threshold

     Davidson diagonalization with overlap
     ethr =  1.60E-05,  avg # of iterations =  5.8

     total cpu time spent up to now is        5.4 secs

     total energy              =    -135.43580464 Ry
     estimated scf accuracy    <       0.00226953 Ry

     iteration #  2     ecut=    70.00 Ry     beta= 0.70
     Davidson diagonalization with overlap
     ethr =  1.62E-05,  avg # of iterations =  2.4

     total cpu time spent up to now is        7.2 secs

     total energy              =    -135.43628322 Ry
     estimated scf accuracy    <       0.00017965 Ry

     iteration #  3     ecut=    70.00 Ry     beta= 0.70
     Davidson diagonalization with overlap
     ethr =  1.28E-06,  avg # of iterations =  3.8

     total cpu time spent up to now is        9.1 secs

     total energy              =    -135.43631163 Ry
     estimated scf accuracy    <       0.00000763 Ry

     iteration #  4     ecut=    70.00 Ry     beta= 0.70
     Davidson diagonalization with overlap
     ethr =  5.45E-08,  avg # of iterations =  2.0

     total cpu time spent up to now is       10.8 secs

     total energy              =    -135.43631247 Ry
     estimated scf accuracy    <       0.00000054 Ry

     iteration #  5     ecut=    70.00 Ry     beta= 0.70
     Davidson diagonalization with overlap
     ethr =  3.89E-09,  avg # of iterations =  2.0

     total cpu time spent up to now is       12.6 secs

     total energy              =    -135.43631265 Ry
     estimated scf accuracy    <       0.00000009 Ry

     iteration #  6     ecut=    70.00 Ry     beta= 0.70
     Davidson diagonalization with overlap
     ethr =  6.26E-10,  avg # of iterations =  2.0

     total cpu time spent up to now is       14.2 secs

     End of self-consistent calculation

          k = 0.0000 0.0000 0.0000 (  1917 PWs)   bands (ev):

    -5.2248  -5.2248  -5.2248  -5.0658  -5.0658  -0.1788  19.6464  19.6464
    19.6464  21.9781  23.7541

          k =-0.1250 0.1250-0.1250 (  1946 PWs)   bands (ev):

    -5.2268  -5.2024  -5.2024  -5.0655  -5.0655   0.1359  16.7240  19.2733
    19.2733  21.5099  25.3601

          k =-0.2500 0.2500-0.2500 (  1949 PWs)   bands (ev):

    -5.2374  -5.1849  -5.1849  -5.0263  -5.0263   1.0793  12.7020  18.5493
    18.5493  21.1657  23.7914

          k =-0.3750 0.3750-0.3750 (  1925 PWs)   bands (ev):

    -5.2556  -5.2024  -5.2024  -4.9497  -4.9497   2.5608   9.2594  17.9487
    17.9487  21.1505  22.4286

          k = 0.5000-0.5000 0.5000 (  1946 PWs)   bands (ev):

    -5.2653  -5.2133  -5.2133  -4.9139  -4.9139   3.7044   7.4508  17.7202
    17.7202  21.3868  21.7322

          k = 0.0000 0.2500 0.0000 (  1949 PWs)   bands (ev):

    -5.2528  -5.1768  -5.1768  -5.0958  -5.0456   0.2405  17.6171  18.1414
    18.1414  20.8952  23.2954

          k =-0.1250 0.3750-0.1250 (  1944 PWs)   bands (ev):

    -5.2647  -5.1565  -5.1410  -5.0937  -5.0084   0.9746  14.1015  17.1921
    17.6682  20.9819  22.2329

          k =-0.2500 0.5000-0.2500 (  1952 PWs)   bands (ev):

    -5.2620  -5.1848  -5.1508  -5.0283  -4.9396   2.2909  10.5287  16.6110
    16.7224  20.2407  23.9160

          k = 0.6250-0.3750 0.6250 (  1943 PWs)   bands (ev):

    -5.2550  -5.2037  -5.1698  -4.9667  -4.9113   3.7457   8.0170  15.6642
    16.8563  20.1085  23.6962

          k = 0.5000-0.2500 0.5000 (  1940 PWs)   bands (ev):

    -5.2363  -5.2085  -5.1715  -4.9573  -4.9469   3.3244   8.6607  15.1902
    17.6087  20.6167  23.1794

          k = 0.3750-0.1250 0.3750 (  1943 PWs)   bands (ev):

    -5.2273  -5.1909  -5.1539  -5.0497  -4.9774   1.7952  11.6547  15.3350
    18.7974  21.7257  22.9295

          k = 0.2500 0.0000 0.2500 (  1943 PWs)   bands (ev):

    -5.2318  -5.1784  -5.1700  -5.0906  -5.0286   0.6609  15.0132  16.4515
    19.7154  22.3395  23.4906

          k = 0.0000 0.5000 0.0000 (  1964 PWs)   bands (ev):

    -5.3196  -5.1789  -5.0563  -5.0563  -4.9966   1.4953  14.3593  16.0029
    16.0029  19.6546  19.7178

          k =-0.1250 0.6250-0.1250 (  1941 PWs)   bands (ev):

    -5.3286  -5.2130  -5.0419  -5.0073  -4.9346   2.6068  11.7848  14.5556
    15.3687  18.9650  20.8951

          k = 0.7500-0.2500 0.7500 (  1941 PWs)   bands (ev):

    -5.3042  -5.1868  -5.0630  -5.0108  -4.9045   4.0351   9.3309  12.9548
    15.4252  18.8848  23.8995

          k = 0.6250-0.1250 0.6250 (  1944 PWs)   bands (ev):

    -5.2708  -5.1308  -5.0791  -5.0349  -4.9529   4.3450   8.9727  11.9941
    16.1869  19.3298  26.0360

          k = 0.5000 0.0000 0.5000 (  1947 PWs)   bands (ev):

    -5.2270  -5.1717  -5.0876  -5.0425  -4.9925   3.0362  10.7959  12.3184
    17.5071  20.2989  25.1438

          k = 0.0000 0.7500 0.0000 (  1956 PWs)   bands (ev):

    -5.3857  -5.2737  -4.9470  -4.9295  -4.9295   3.4943  10.7685  14.5179
    14.5179  17.9008  18.9085

          k = 0.8750-0.1250 0.8750 (  1951 PWs)   bands (ev):

    -5.3743  -5.2795  -4.9590  -4.9208  -4.8917   4.6934   9.3248  12.6679
    14.3717  18.0954  20.2803

          k = 0.7500 0.0000 0.7500 (  1926 PWs)   bands (ev):

    -5.3248  -5.1959  -4.9936  -4.9915  -4.9224   5.1276   9.4674  10.5686
    14.9678  18.5066  23.6085

          k = 0.0000-1.0000 0.0000 (  1964 PWs)   bands (ev):

    -5.4130  -5.3157  -4.9264  -4.8751  -4.8751   5.2197   8.4304  13.9941
    13.9941  17.3870  18.6645

          k =-0.2500 0.5000 0.0000 (  1944 PWs)   bands (ev):

    -5.2691  -5.1764  -5.1068  -5.0610  -4.9698   1.9002  12.6146  14.3895
    17.1352  21.2207  21.8116

          k = 0.6250-0.3750 0.8750 (  1944 PWs)   bands (ev):

    -5.2422  -5.2015  -5.1050  -5.0158  -4.9409   3.3063   9.9796  13.4556
    15.8537  21.0128  23.3854

          k = 0.5000-0.2500 0.7500 (  1918 PWs)   bands (ev):

    -5.2305  -5.2109  -5.0879  -5.0220  -4.9219   4.3194   8.4152  13.3581
    15.2672  20.9102  23.1973

          k = 0.7500-0.2500 1.0000 (  1944 PWs)   bands (ev):

    -5.3200  -5.2388  -5.0388  -4.9359  -4.9313   3.8037  10.5019  12.9981
    13.9565  20.0607  20.9830

          k = 0.6250-0.1250 0.8750 (  1930 PWs)   bands (ev):

    -5.2751  -5.1957  -5.0673  -4.9980  -4.9001   4.9116   9.5048  11.3834
    13.5923  20.6298  23.7945

          k = 0.5000 0.0000 0.7500 (  1930 PWs)   bands (ev):

    -5.2402  -5.1545  -5.1068  -5.0172  -4.9346   4.5381  10.0007  10.9136
    14.4088  21.2458  24.7728

          k =-0.2500-1.0000 0.0000 (  1940 PWs)   bands (ev):

    -5.3416  -5.2728  -4.9628  -4.9621  -4.8750   5.2758   8.9536  12.5086
    12.8357  19.6942  20.6945

          k =-0.5000-1.0000 0.0000 (  1912 PWs)   bands (ev):

    -5.2152  -5.1594  -5.1594  -5.0142  -4.8748   5.3357  10.4190  10.4190
    12.1095  23.0943  24.4585

     the Fermi energy is    11.8788 ev

!    total energy              =    -135.43631266 Ry
     estimated scf accuracy    <          6.2E-10 Ry
     smearing contrib. (-TS)   =      -0.00009939 Ry
     internal energy E=F+TS    =    -135.43621328 Ry

     The total energy is F=E-TS. E is the sum of the following terms:
     one-electron contribution =     -31.48068656 Ry
     hartree contribution      =      26.10891022 Ry
     xc contribution           =     -32.62585977 Ry
     ewald contribution        =     -97.43857717 Ry

     convergence has been achieved in   6 iterations

     Writing output data file /home/elena/AEP_DFT/DFT/tmp/vib/Pb.save/

     init_run     :      1.39s CPU      1.48s WALL (       1 calls)
     electrons    :     12.06s CPU     12.62s WALL (       1 calls)

     Called by init_run:
     wfcinit      :      0.55s CPU      0.57s WALL (       1 calls)
     potinit      :      0.13s CPU      0.15s WALL (       1 calls)
     hinit0       :      0.59s CPU      0.60s WALL (       1 calls)

     Called by electrons:
     c_bands      :      8.93s CPU      8.96s WALL (       7 calls)
     sum_band     :      2.17s CPU      2.48s WALL (       7 calls)
     v_of_rho     :      0.45s CPU      0.49s WALL (       7 calls)
     newd         :      0.63s CPU      0.87s WALL (       7 calls)
     mix_rho      :      0.03s CPU      0.03s WALL (       7 calls)

     Called by c_bands:
     init_us_2    :      0.23s CPU      0.23s WALL (     435 calls)
     cegterg      :      8.59s CPU      8.61s WALL (     203 calls)

     Called by *egterg:
     cdiaghg      :      0.11s CPU      0.11s WALL (     827 calls)
     h_psi        :      7.23s CPU      7.26s WALL (     885 calls)
     s_psi        :      0.29s CPU      0.29s WALL (     885 calls)
     g_psi        :      0.03s CPU      0.03s WALL (     653 calls)

     Called by h_psi:
     h_psi:calbec :      0.35s CPU      0.35s WALL (     885 calls)
     vloc_psi     :      6.55s CPU      6.58s WALL (     885 calls)
     add_vuspsi   :      0.30s CPU      0.30s WALL (     885 calls)

     General routines
     calbec       :      0.47s CPU      0.47s WALL (    1088 calls)
     fft          :      0.21s CPU      0.21s WALL (      90 calls)
     ffts         :      0.02s CPU      0.02s WALL (      14 calls)
     fftw         :      7.01s CPU      7.04s WALL (   14759 calls)
     interpolate  :      0.03s CPU      0.03s WALL (       7 calls)


     PWSCF        :     13.61s CPU     14.27s WALL


   This run was terminated on:  11: 9:18   2Jul2021            

=------------------------------------------------------------------------------=
   JOB DONE.
=------------------------------------------------------------------------------=
