
     Program PHONON v.6.7MaX starts on  2Jul2021 at 11: 9:18 

     This program is part of the open-source Quantum ESPRESSO suite
     for quantum simulation of materials; please cite
         "P. Giannozzi et al., J. Phys.:Condens. Matter 21 395502 (2009);
         "P. Giannozzi et al., J. Phys.:Condens. Matter 29 465901 (2017);
          URL http://www.quantum-espresso.org", 
     in publications or presentations arising from this work. More details at
     http://www.quantum-espresso.org/quote

     Serial version
     Waiting for input...
     Reading input from standard input

     Reading xml data from directory:

     /home/elena/AEP_DFT/DFT/tmp/vib/Pb.save/
     file Pb.pbe-dn-rrkjus_psl.1.0.0.UPF: wavefunction(s)  6S 5D renormalized

     IMPORTANT: XC functional enforced from input :
     Exchange-correlation= PBE
                           (   1   4   3   4   0   0   0)
     Any further DFT definition will be discarded
     Please, verify this is what you really want


     G-vector sticks info
     --------------------
     sticks:   dense  smooth     PW     G-vecs:    dense   smooth      PW
     Sum        1639     823    253                43895    15593    2637

     Reading collected, re-writing distributed wavefunctions

     Saving dvscf to file. Distribute only q points, not irreducible represetations.

     Calculation of q =    0.0000000   0.0000000   0.0000000

     ABC                                                                        

     bravais-lattice index     =            2
     lattice parameter (alat)  =       9.2226  a.u.
     unit-cell volume          =     196.1075 (a.u.)^3
     number of atoms/cell      =            1
     number of atomic types    =            1
     kinetic-energy cut-off    =      70.0000  Ry
     charge density cut-off    =     560.0000  Ry
     convergence threshold     =      1.0E-12
     beta                      =       0.7000
     number of iterations used =            4
     Exchange-correlation= PBE
                           (   1   4   3   4   0   0   0)


     celldm(1)=    9.22256  celldm(2)=    0.00000  celldm(3)=    0.00000
     celldm(4)=    0.00000  celldm(5)=    0.00000  celldm(6)=    0.00000

     crystal axes: (cart. coord. in units of alat)
               a(1) = ( -0.5000  0.0000  0.5000 )  
               a(2) = (  0.0000  0.5000  0.5000 )  
               a(3) = ( -0.5000  0.5000  0.0000 )  

     reciprocal axes: (cart. coord. in units 2 pi/alat)
               b(1) = ( -1.0000 -1.0000  1.0000 )  
               b(2) = (  1.0000  1.0000  1.0000 )  
               b(3) = ( -1.0000  1.0000 -1.0000 )  


     Atoms inside the unit cell: 

     Cartesian axes

     site n.  atom      mass           positions (alat units)
        1     Pb 207.2000   tau(    1) = (    0.00000    0.00000    0.00000  )

     Computing dynamical matrix for 
                    q = (   0.0000000   0.0000000   0.0000000 )

     49 Sym.Ops. (with q -> -q+G )


     G cutoff = 1206.5105  (  43895 G-vectors)     FFT grid: ( 50, 50, 50)
     G cutoff =  603.2553  (  15593 G-vectors)  smooth grid: ( 36, 36, 36)

     number of k points=    29  Methfessel-Paxton smearing, width (Ry)=  0.0200
                       cart. coord. in units 2pi/alat
        k(    1) = (   0.0000000   0.0000000   0.0000000), wk =   0.0039062
        k(    2) = (  -0.1250000   0.1250000  -0.1250000), wk =   0.0312500
        k(    3) = (  -0.2500000   0.2500000  -0.2500000), wk =   0.0312500
        k(    4) = (  -0.3750000   0.3750000  -0.3750000), wk =   0.0312500
        k(    5) = (   0.5000000  -0.5000000   0.5000000), wk =   0.0156250
        k(    6) = (   0.0000000   0.2500000   0.0000000), wk =   0.0234375
        k(    7) = (  -0.1250000   0.3750000  -0.1250000), wk =   0.0937500
        k(    8) = (  -0.2500000   0.5000000  -0.2500000), wk =   0.0937500
        k(    9) = (   0.6250000  -0.3750000   0.6250000), wk =   0.0937500
        k(   10) = (   0.5000000  -0.2500000   0.5000000), wk =   0.0937500
        k(   11) = (   0.3750000  -0.1250000   0.3750000), wk =   0.0937500
        k(   12) = (   0.2500000   0.0000000   0.2500000), wk =   0.0468750
        k(   13) = (   0.0000000   0.5000000   0.0000000), wk =   0.0234375
        k(   14) = (  -0.1250000   0.6250000  -0.1250000), wk =   0.0937500
        k(   15) = (   0.7500000  -0.2500000   0.7500000), wk =   0.0937500
        k(   16) = (   0.6250000  -0.1250000   0.6250000), wk =   0.0937500
        k(   17) = (   0.5000000   0.0000000   0.5000000), wk =   0.0468750
        k(   18) = (   0.0000000   0.7500000   0.0000000), wk =   0.0234375
        k(   19) = (   0.8750000  -0.1250000   0.8750000), wk =   0.0937500
        k(   20) = (   0.7500000   0.0000000   0.7500000), wk =   0.0468750
        k(   21) = (   0.0000000  -1.0000000   0.0000000), wk =   0.0117188
        k(   22) = (  -0.2500000   0.5000000   0.0000000), wk =   0.0937500
        k(   23) = (   0.6250000  -0.3750000   0.8750000), wk =   0.1875000
        k(   24) = (   0.5000000  -0.2500000   0.7500000), wk =   0.0937500
        k(   25) = (   0.7500000  -0.2500000   1.0000000), wk =   0.0937500
        k(   26) = (   0.6250000  -0.1250000   0.8750000), wk =   0.1875000
        k(   27) = (   0.5000000   0.0000000   0.7500000), wk =   0.0937500
        k(   28) = (  -0.2500000  -1.0000000   0.0000000), wk =   0.0468750
        k(   29) = (  -0.5000000  -1.0000000   0.0000000), wk =   0.0234375

     PseudoPot. # 1 for Pb read from file:
     /home/elena/qe-6.7/pseudo/Pb.pbe-dn-rrkjus_psl.1.0.0.UPF
     MD5 check sum: 1cf8f5e18580e6a90a35f98a53d336de
     Pseudo is Ultrasoft + core correction, Zval = 14.0
     Generated using &quot;atomic&quot; code by A. Dal Corso  v.6.3
     Using radial grid of 1281 points,  6 beta functions with: 
                l(1) =   0
                l(2) =   0
                l(3) =   1
                l(4) =   1
                l(5) =   2
                l(6) =   2
     Q(r) pseudized with 0 coefficients 


     Mode symmetry, O_h (m-3m)  point group:


     Atomic displacements:
     There are    1 irreducible representations

     Representation     1      3 modes -  To be done



     Alpha used in Ewald sum =   2.8000
     PHONON       :      5.93s CPU      6.03s WALL



     Representation #   1 modes #   1   2   3

     Self-consistent Calculation

     Pert. #  1: Fermi energy shift (Ry) =    -1.1029E-24     0.0000E+00
     Pert. #  2: Fermi energy shift (Ry) =    -2.7573E-25     0.0000E+00
     Pert. #  3: Fermi energy shift (Ry) =     2.7573E-25     0.0000E+00

      iter #   1 total cpu time :    17.6 secs   av.it.:   8.6
      thresh= 1.000E-02 alpha_mix =  0.700 |ddv_scf|^2 =  1.035E-06

     Pert. #  1: Fermi energy shift (Ry) =     2.7573E-25     0.0000E+00
     Pert. #  2: Fermi energy shift (Ry) =    -1.7922E-24     0.0000E+00
     Pert. #  3: Fermi energy shift (Ry) =    -1.5165E-24     0.0000E+00

      iter #   2 total cpu time :    32.8 secs   av.it.:  13.8
      thresh= 1.017E-04 alpha_mix =  0.700 |ddv_scf|^2 =  9.251E-08

     Pert. #  1: Fermi energy shift (Ry) =     1.6544E-24     0.0000E+00
     Pert. #  2: Fermi energy shift (Ry) =    -6.8932E-25     0.0000E+00
     Pert. #  3: Fermi energy shift (Ry) =    -4.1359E-25     0.0000E+00

      iter #   3 total cpu time :    48.3 secs   av.it.:  13.6
      thresh= 3.041E-05 alpha_mix =  0.700 |ddv_scf|^2 =  4.481E-11

     Pert. #  1: Fermi energy shift (Ry) =    -5.5145E-25     7.6530E-41
     Pert. #  2: Fermi energy shift (Ry) =     1.1029E-24    -6.1224E-41
     Pert. #  3: Fermi energy shift (Ry) =    -2.0680E-24    -9.1835E-41

      iter #   4 total cpu time :    63.3 secs   av.it.:  13.7
      thresh= 6.694E-07 alpha_mix =  0.700 |ddv_scf|^2 =  6.389E-13

     End of self-consistent calculation

     Convergence has been achieved 

     Number of q in the star =    1
     List of q in the star:
          1   0.000000000   0.000000000   0.000000000

     Diagonalizing the dynamical matrix

     q = (    0.000000000   0.000000000   0.000000000 ) 

 **************************************************************************
     freq (    1) =       0.708327 [THz] =      23.627258 [cm-1]
     freq (    2) =       0.708327 [THz] =      23.627258 [cm-1]
     freq (    3) =       0.708327 [THz] =      23.627258 [cm-1]
 **************************************************************************

     Mode symmetry, O_h (m-3m)  point group:

     freq (   1-   3) =         23.6  [cm-1]   --> T_1u G_15  G_4- I  

     PHONON       :   1m 2.60s CPU   1m 3.66s WALL

     INITIALIZATION: 
     phq_setup    :      0.17s CPU      0.19s WALL (       1 calls)
     phq_init     :      4.85s CPU      4.89s WALL (       1 calls)

     phq_init     :      4.85s CPU      4.89s WALL (       1 calls)
     set_drhoc    :      1.62s CPU      1.62s WALL (       3 calls)
     init_vloc    :      0.00s CPU      0.00s WALL (       1 calls)
     init_us_1    :      0.47s CPU      0.47s WALL (       1 calls)
     newd         :      0.10s CPU      0.13s WALL (       1 calls)
     dvanqq       :      1.27s CPU      1.29s WALL (       1 calls)
     drho         :      1.19s CPU      1.21s WALL (       1 calls)

     DYNAMICAL MATRIX:
     dynmat0      :      1.36s CPU      1.37s WALL (       1 calls)
     phqscf       :     56.67s CPU     57.61s WALL (       1 calls)
     dynmatrix    :      0.00s CPU      0.00s WALL (       1 calls)

     phqscf       :     56.67s CPU     57.61s WALL (       1 calls)
     solve_linter :     56.44s CPU     57.37s WALL (       1 calls)
     drhodv       :      0.23s CPU      0.24s WALL (       1 calls)

     dynmat0      :      1.36s CPU      1.37s WALL (       1 calls)
     dynmat_us    :      0.19s CPU      0.20s WALL (       1 calls)
     d2ionq       :      0.01s CPU      0.01s WALL (       1 calls)
     dynmatcc     :      1.16s CPU      1.17s WALL (       1 calls)

     dynmat_us    :      0.19s CPU      0.20s WALL (       1 calls)
     addusdynmat  :      0.00s CPU      0.00s WALL (       1 calls)

     phqscf       :     56.67s CPU     57.61s WALL (       1 calls)
     solve_linter :     56.44s CPU     57.37s WALL (       1 calls)

     solve_linter :     56.44s CPU     57.37s WALL (       1 calls)
     dvqpsi_us    :      1.30s CPU      1.30s WALL (      87 calls)
     ortho        :      0.55s CPU      0.56s WALL (     348 calls)
     cgsolve      :     44.08s CPU     44.39s WALL (     348 calls)
     incdrhoscf   :      3.12s CPU      3.16s WALL (     348 calls)
     addusddens   :      0.84s CPU      0.87s WALL (       5 calls)
     vpsifft      :      1.98s CPU      2.02s WALL (     261 calls)
     dv_of_drho   :      0.46s CPU      0.48s WALL (      12 calls)
     mix_pot      :      0.03s CPU      0.08s WALL (       4 calls)
     ef_shift     :      0.06s CPU      0.07s WALL (       5 calls)
     localdos     :      0.35s CPU      0.36s WALL (       1 calls)
     symdvscf     :      2.03s CPU      2.04s WALL (       4 calls)
     newdq        :      1.32s CPU      1.34s WALL (       4 calls)
     adddvscf     :      0.16s CPU      0.16s WALL (     261 calls)
     drhodvus     :      0.00s CPU      0.00s WALL (       1 calls)

     dvqpsi_us    :      1.30s CPU      1.30s WALL (      87 calls)
     dvqpsi_us_on :      0.21s CPU      0.21s WALL (      87 calls)

     cgsolve      :     44.08s CPU     44.39s WALL (     348 calls)
     ch_psi       :     43.01s CPU     43.31s WALL (    5267 calls)

     ch_psi       :     43.01s CPU     43.31s WALL (    5267 calls)
     h_psi        :     36.73s CPU     36.99s WALL (    5267 calls)
     last         :      4.71s CPU      4.74s WALL (    5267 calls)

     h_psi        :     36.73s CPU     36.99s WALL (    5267 calls)
     add_vuspsi   :      1.41s CPU      1.42s WALL (    5267 calls)

     incdrhoscf   :      3.12s CPU      3.16s WALL (     348 calls)
     addusdbec    :      0.28s CPU      0.28s WALL (     435 calls)

     drhodvus     :      0.00s CPU      0.00s WALL (       1 calls)

      General routines
     calbec       :      4.33s CPU      4.37s WALL (   11984 calls)
     fft          :      0.60s CPU      0.62s WALL (     286 calls)
     ffts         :      0.30s CPU      0.30s WALL (     327 calls)
     fftw         :     35.75s CPU     36.04s WALL (   74908 calls)
     davcio       :      0.14s CPU      0.54s WALL (    1545 calls)
     write_rec    :      0.00s CPU      0.03s WALL (       5 calls)


     PHONON       :   1m 2.60s CPU   1m 3.66s WALL


   This run was terminated on:  11:10:22   2Jul2021            

=------------------------------------------------------------------------------=
   JOB DONE.
=------------------------------------------------------------------------------=
