
     Program PHONON v.6.7MaX starts on  2Jul2021 at 11: 7:56 

     This program is part of the open-source Quantum ESPRESSO suite
     for quantum simulation of materials; please cite
         "P. Giannozzi et al., J. Phys.:Condens. Matter 21 395502 (2009);
         "P. Giannozzi et al., J. Phys.:Condens. Matter 29 465901 (2017);
          URL http://www.quantum-espresso.org", 
     in publications or presentations arising from this work. More details at
     http://www.quantum-espresso.org/quote

     Serial version
     Waiting for input...
     Reading input from standard input

     Reading xml data from directory:

     /home/elena/AEP_DFT/DFT/tmp/vib/Pb.save/
     file Pb.pbe-dn-rrkjus_psl.1.0.0.UPF: wavefunction(s)  6S 5D renormalized

     IMPORTANT: XC functional enforced from input :
     Exchange-correlation= PBE
                           (   1   4   3   4   0   0   0)
     Any further DFT definition will be discarded
     Please, verify this is what you really want


     G-vector sticks info
     --------------------
     sticks:   dense  smooth     PW     G-vecs:    dense   smooth      PW
     Sum        1639     823    253                43895    15593    2637

     Reading collected, re-writing distributed wavefunctions

     Saving dvscf to file. Distribute only q points, not irreducible represetations.

     Calculation of q =    0.0000000   0.0000000   0.0000000

     ABC                                                                        

     bravais-lattice index     =            2
     lattice parameter (alat)  =       9.2226  a.u.
     unit-cell volume          =     196.1075 (a.u.)^3
     number of atoms/cell      =            1
     number of atomic types    =            1
     kinetic-energy cut-off    =      70.0000  Ry
     charge density cut-off    =     560.0000  Ry
     convergence threshold     =      1.0E-12
     beta                      =       0.7000
     number of iterations used =            4
     Exchange-correlation= PBE
                           (   1   4   3   4   0   0   0)


     celldm(1)=    9.22256  celldm(2)=    0.00000  celldm(3)=    0.00000
     celldm(4)=    0.00000  celldm(5)=    0.00000  celldm(6)=    0.00000

     crystal axes: (cart. coord. in units of alat)
               a(1) = ( -0.5000  0.0000  0.5000 )  
               a(2) = (  0.0000  0.5000  0.5000 )  
               a(3) = ( -0.5000  0.5000  0.0000 )  

     reciprocal axes: (cart. coord. in units 2 pi/alat)
               b(1) = ( -1.0000 -1.0000  1.0000 )  
               b(2) = (  1.0000  1.0000  1.0000 )  
               b(3) = ( -1.0000  1.0000 -1.0000 )  


     Atoms inside the unit cell: 

     Cartesian axes

     site n.  atom      mass           positions (alat units)
        1     Pb 207.2000   tau(    1) = (    0.00000    0.00000    0.00000  )

     Computing dynamical matrix for 
                    q = (   0.0000000   0.0000000   0.0000000 )

     49 Sym.Ops. (with q -> -q+G )


     G cutoff = 1206.5105  (  43895 G-vectors)     FFT grid: ( 50, 50, 50)
     G cutoff =  603.2553  (  15593 G-vectors)  smooth grid: ( 36, 36, 36)

     number of k points=    29  Methfessel-Paxton smearing, width (Ry)=  0.0300
                       cart. coord. in units 2pi/alat
        k(    1) = (   0.0000000   0.0000000   0.0000000), wk =   0.0039062
        k(    2) = (  -0.1250000   0.1250000  -0.1250000), wk =   0.0312500
        k(    3) = (  -0.2500000   0.2500000  -0.2500000), wk =   0.0312500
        k(    4) = (  -0.3750000   0.3750000  -0.3750000), wk =   0.0312500
        k(    5) = (   0.5000000  -0.5000000   0.5000000), wk =   0.0156250
        k(    6) = (   0.0000000   0.2500000   0.0000000), wk =   0.0234375
        k(    7) = (  -0.1250000   0.3750000  -0.1250000), wk =   0.0937500
        k(    8) = (  -0.2500000   0.5000000  -0.2500000), wk =   0.0937500
        k(    9) = (   0.6250000  -0.3750000   0.6250000), wk =   0.0937500
        k(   10) = (   0.5000000  -0.2500000   0.5000000), wk =   0.0937500
        k(   11) = (   0.3750000  -0.1250000   0.3750000), wk =   0.0937500
        k(   12) = (   0.2500000   0.0000000   0.2500000), wk =   0.0468750
        k(   13) = (   0.0000000   0.5000000   0.0000000), wk =   0.0234375
        k(   14) = (  -0.1250000   0.6250000  -0.1250000), wk =   0.0937500
        k(   15) = (   0.7500000  -0.2500000   0.7500000), wk =   0.0937500
        k(   16) = (   0.6250000  -0.1250000   0.6250000), wk =   0.0937500
        k(   17) = (   0.5000000   0.0000000   0.5000000), wk =   0.0468750
        k(   18) = (   0.0000000   0.7500000   0.0000000), wk =   0.0234375
        k(   19) = (   0.8750000  -0.1250000   0.8750000), wk =   0.0937500
        k(   20) = (   0.7500000   0.0000000   0.7500000), wk =   0.0468750
        k(   21) = (   0.0000000  -1.0000000   0.0000000), wk =   0.0117188
        k(   22) = (  -0.2500000   0.5000000   0.0000000), wk =   0.0937500
        k(   23) = (   0.6250000  -0.3750000   0.8750000), wk =   0.1875000
        k(   24) = (   0.5000000  -0.2500000   0.7500000), wk =   0.0937500
        k(   25) = (   0.7500000  -0.2500000   1.0000000), wk =   0.0937500
        k(   26) = (   0.6250000  -0.1250000   0.8750000), wk =   0.1875000
        k(   27) = (   0.5000000   0.0000000   0.7500000), wk =   0.0937500
        k(   28) = (  -0.2500000  -1.0000000   0.0000000), wk =   0.0468750
        k(   29) = (  -0.5000000  -1.0000000   0.0000000), wk =   0.0234375

     PseudoPot. # 1 for Pb read from file:
     /home/elena/qe-6.7/pseudo/Pb.pbe-dn-rrkjus_psl.1.0.0.UPF
     MD5 check sum: 1cf8f5e18580e6a90a35f98a53d336de
     Pseudo is Ultrasoft + core correction, Zval = 14.0
     Generated using &quot;atomic&quot; code by A. Dal Corso  v.6.3
     Using radial grid of 1281 points,  6 beta functions with: 
                l(1) =   0
                l(2) =   0
                l(3) =   1
                l(4) =   1
                l(5) =   2
                l(6) =   2
     Q(r) pseudized with 0 coefficients 


     Mode symmetry, O_h (m-3m)  point group:


     Atomic displacements:
     There are    1 irreducible representations

     Representation     1      3 modes -  To be done



     Alpha used in Ewald sum =   2.8000
     PHONON       :      5.44s CPU      5.55s WALL



     Representation #   1 modes #   1   2   3

     Self-consistent Calculation

     Pert. #  1: Fermi energy shift (Ry) =     0.0000E+00     8.8162E-39
     Pert. #  2: Fermi energy shift (Ry) =    -3.9291E-24     0.0000E+00
     Pert. #  3: Fermi energy shift (Ry) =    -6.8932E-25     0.0000E+00

      iter #   1 total cpu time :    17.6 secs   av.it.:   8.4
      thresh= 1.000E-02 alpha_mix =  0.700 |ddv_scf|^2 =  1.034E-06

     Pert. #  1: Fermi energy shift (Ry) =     0.0000E+00     0.0000E+00
     Pert. #  2: Fermi energy shift (Ry) =     3.4466E-24     0.0000E+00
     Pert. #  3: Fermi energy shift (Ry) =    -5.5145E-25     0.0000E+00

      iter #   2 total cpu time :    33.9 secs   av.it.:  13.7
      thresh= 1.017E-04 alpha_mix =  0.700 |ddv_scf|^2 =  9.193E-08

     Pert. #  1: Fermi energy shift (Ry) =     5.5145E-25    -1.2245E-39
     Pert. #  2: Fermi energy shift (Ry) =    -2.7573E-25    -2.4489E-40
     Pert. #  3: Fermi energy shift (Ry) =     0.0000E+00    -7.3468E-40

      iter #   3 total cpu time :    49.9 secs   av.it.:  13.4
      thresh= 3.032E-05 alpha_mix =  0.700 |ddv_scf|^2 =  4.459E-11

     Pert. #  1: Fermi energy shift (Ry) =    -5.5145E-25     0.0000E+00
     Pert. #  2: Fermi energy shift (Ry) =    -8.6165E-25     0.0000E+00
     Pert. #  3: Fermi energy shift (Ry) =    -1.3786E-25     0.0000E+00

      iter #   4 total cpu time :    67.8 secs   av.it.:  13.6
      thresh= 6.677E-07 alpha_mix =  0.700 |ddv_scf|^2 =  6.309E-13

     End of self-consistent calculation

     Convergence has been achieved 

     Number of q in the star =    1
     List of q in the star:
          1   0.000000000   0.000000000   0.000000000

     Diagonalizing the dynamical matrix

     q = (    0.000000000   0.000000000   0.000000000 ) 

 **************************************************************************
     freq (    1) =       0.582053 [THz] =      19.415201 [cm-1]
     freq (    2) =       0.582053 [THz] =      19.415201 [cm-1]
     freq (    3) =       0.582053 [THz] =      19.415201 [cm-1]
 **************************************************************************

     Mode symmetry, O_h (m-3m)  point group:

     freq (   1-   3) =         19.4  [cm-1]   --> T_1u G_15  G_4- I  

     PHONON       :   1m 6.84s CPU   1m 8.26s WALL

     INITIALIZATION: 
     phq_setup    :      0.17s CPU      0.19s WALL (       1 calls)
     phq_init     :      4.36s CPU      4.38s WALL (       1 calls)

     phq_init     :      4.36s CPU      4.38s WALL (       1 calls)
     set_drhoc    :      1.56s CPU      1.56s WALL (       3 calls)
     init_vloc    :      0.00s CPU      0.00s WALL (       1 calls)
     init_us_1    :      0.47s CPU      0.48s WALL (       1 calls)
     newd         :      0.09s CPU      0.13s WALL (       1 calls)
     dvanqq       :      0.91s CPU      0.91s WALL (       1 calls)
     drho         :      1.15s CPU      1.16s WALL (       1 calls)

     DYNAMICAL MATRIX:
     dynmat0      :      1.26s CPU      1.26s WALL (       1 calls)
     phqscf       :     61.40s CPU     62.69s WALL (       1 calls)
     dynmatrix    :      0.00s CPU      0.00s WALL (       1 calls)

     phqscf       :     61.40s CPU     62.69s WALL (       1 calls)
     solve_linter :     61.09s CPU     62.37s WALL (       1 calls)
     drhodv       :      0.32s CPU      0.32s WALL (       1 calls)

     dynmat0      :      1.26s CPU      1.26s WALL (       1 calls)
     dynmat_us    :      0.16s CPU      0.16s WALL (       1 calls)
     d2ionq       :      0.01s CPU      0.01s WALL (       1 calls)
     dynmatcc     :      1.10s CPU      1.10s WALL (       1 calls)

     dynmat_us    :      0.16s CPU      0.16s WALL (       1 calls)
     addusdynmat  :      0.00s CPU      0.00s WALL (       1 calls)

     phqscf       :     61.40s CPU     62.69s WALL (       1 calls)
     solve_linter :     61.09s CPU     62.37s WALL (       1 calls)

     solve_linter :     61.09s CPU     62.37s WALL (       1 calls)
     dvqpsi_us    :      1.36s CPU      1.38s WALL (      87 calls)
     ortho        :      0.58s CPU      0.59s WALL (     348 calls)
     cgsolve      :     46.92s CPU     47.48s WALL (     348 calls)
     incdrhoscf   :      3.37s CPU      3.46s WALL (     348 calls)
     addusddens   :      1.12s CPU      1.15s WALL (       5 calls)
     vpsifft      :      2.11s CPU      2.19s WALL (     261 calls)
     dv_of_drho   :      0.59s CPU      0.63s WALL (      12 calls)
     mix_pot      :      0.03s CPU      0.09s WALL (       4 calls)
     ef_shift     :      0.06s CPU      0.09s WALL (       5 calls)
     localdos     :      0.37s CPU      0.38s WALL (       1 calls)
     symdvscf     :      2.56s CPU      2.58s WALL (       4 calls)
     newdq        :      1.65s CPU      1.67s WALL (       4 calls)
     adddvscf     :      0.16s CPU      0.16s WALL (     261 calls)
     drhodvus     :      0.00s CPU      0.00s WALL (       1 calls)

     dvqpsi_us    :      1.36s CPU      1.38s WALL (      87 calls)
     dvqpsi_us_on :      0.21s CPU      0.21s WALL (      87 calls)

     cgsolve      :     46.92s CPU     47.48s WALL (     348 calls)
     ch_psi       :     45.74s CPU     46.28s WALL (    5195 calls)

     ch_psi       :     45.74s CPU     46.28s WALL (    5195 calls)
     h_psi        :     39.07s CPU     39.53s WALL (    5195 calls)
     last         :      5.00s CPU      5.07s WALL (    5195 calls)

     h_psi        :     39.07s CPU     39.53s WALL (    5195 calls)
     add_vuspsi   :      1.48s CPU      1.50s WALL (    5195 calls)

     incdrhoscf   :      3.37s CPU      3.46s WALL (     348 calls)
     addusdbec    :      0.28s CPU      0.29s WALL (     435 calls)

     drhodvus     :      0.00s CPU      0.00s WALL (       1 calls)

      General routines
     calbec       :      4.65s CPU      4.71s WALL (   11840 calls)
     fft          :      0.70s CPU      0.73s WALL (     286 calls)
     ffts         :      0.31s CPU      0.31s WALL (     331 calls)
     fftw         :     37.57s CPU     38.10s WALL (   75464 calls)
     davcio       :      0.14s CPU      0.49s WALL (    1545 calls)
     write_rec    :      0.00s CPU      0.03s WALL (       5 calls)


     PHONON       :   1m 6.84s CPU   1m 8.26s WALL


   This run was terminated on:  11: 9: 4   2Jul2021            

=------------------------------------------------------------------------------=
   JOB DONE.
=------------------------------------------------------------------------------=
