
     Program BANDS v.6.4.1 starts on  1Jul2021 at 17:10:48 

     This program is part of the open-source Quantum ESPRESSO suite
     for quantum simulation of materials; please cite
         "P. Giannozzi et al., J. Phys.:Condens. Matter 21 395502 (2009);
         "P. Giannozzi et al., J. Phys.:Condens. Matter 29 465901 (2017);
          URL http://www.quantum-espresso.org", 
     in publications or presentations arising from this work. More details at
     http://www.quantum-espresso.org/quote

     Parallel version (MPI), running on     1 processors

     MPI processes distributed on     1 nodes

     Reading data from directory:
     /home/elena/AEP_DFT/DFT/tmp/bands/Pb.save/

     IMPORTANT: XC functional enforced from input :
     Exchange-correlation      = PBE ( 1  4  3  4 0 0)
     Any further DFT definition will be discarded
     Please, verify this is what you really want

               file Pb.pbe-dn-rrkjus_psl.1.0.0.UPF: wavefunction(s)  6S 5D renormalized

     G-vector sticks info
     --------------------
     sticks:   dense  smooth     PW     G-vecs:    dense   smooth      PW
     Sum        1639     823    253                43895    15593    2565

     high-symmetry point:  0.0000 0.0000 0.0000   x coordinate   0.0000
     high-symmetry point:  0.0000 0.0000 1.0000   x coordinate   1.0000
     high-symmetry point: -0.5000 0.0000 1.0000   x coordinate   1.5000
     high-symmetry point: -0.5000 0.5000 0.5000   x coordinate   2.2071
     high-symmetry point:  0.0000 0.0000 0.0000   x coordinate   3.0731
     high-symmetry point: -0.7500 0.0000 0.7500   x coordinate   4.1338
     high-symmetry point:  0.0000 0.0000 1.0000   x coordinate   4.9244

     Plottable bands (eV) written to file bands_Pb.gnu
     Bands written to file bands_Pb

 **************************************************************************

                    xk=(   0.00000,   0.00000,   0.00000  )

     point group O_h (m-3m) 
     there are 10 classes
     the character table:

       E     8C3   3C2   6C4   6C2'  i     8S6   3s_h  6S4   6s_d 
A_1g   1.00  1.00  1.00  1.00  1.00  1.00  1.00  1.00  1.00  1.00
A_2g   1.00  1.00  1.00 -1.00 -1.00  1.00  1.00  1.00 -1.00 -1.00
E_g    2.00 -1.00  2.00  0.00  0.00  2.00 -1.00  2.00  0.00  0.00
T_1g   3.00  0.00 -1.00  1.00 -1.00  3.00  0.00 -1.00  1.00 -1.00
T_2g   3.00  0.00 -1.00 -1.00  1.00  3.00  0.00 -1.00 -1.00  1.00
A_1u   1.00  1.00  1.00  1.00  1.00 -1.00 -1.00 -1.00 -1.00 -1.00
A_2u   1.00  1.00  1.00 -1.00 -1.00 -1.00 -1.00 -1.00  1.00  1.00
E_u    2.00 -1.00  2.00  0.00  0.00 -2.00  1.00 -2.00  0.00  0.00
T_1u   3.00  0.00 -1.00  1.00 -1.00 -3.00  0.00  1.00 -1.00  1.00
T_2u   3.00  0.00 -1.00 -1.00  1.00 -3.00  0.00  1.00  1.00 -1.00

     the symmetry operations in each class and the name of the first element:

     E        1
                                                                 
     8C3     17   19   20   18   24   21   22   23
                                                                 
     3C2      2    4    3
                                                                 
     6C4      7    8   15   16   12   11
                                                                 
     6C2'     5    6   14   13   10    9
                                                                 
     i       25
                                                                 
     8S6     41   43   44   42   48   45   46   47
                                                                 
     3s_h    26   28   27
                                                                 
     6S4     31   32   39   40   36   35
                                                                 
     6s_d    29   30   38   37   34   33
                                                                 

     Band symmetry, O_h (m-3m)  point group:

     e(  1 -  3) =     -5.23629  eV     3   --> T_2g G_25' G_5+
     e(  4 -  5) =     -5.07722  eV     2   --> E_g  G_12  G_3+
     e(  6 -  6) =     -0.18251  eV     1   --> A_1g G_1   G_1+
     e(  7 -  9) =     19.64270  eV     3   --> T_1u G_15  G_4-
     e( 10 - 10) =     21.97734  eV     1   --> A_2u G_2'  G_2-
     e( 11 - 11) =     23.75181  eV     1   --> A_1g G_1   G_1+

 **************************************************************************

 **************************************************************************

                    xk=(   0.00000,   0.00000,   0.01000  )

     point group C_4v (4mm) 
     there are  5 classes
     the character table:

       E     2C4   C2    2s_v  2s_d 
A_1    1.00  1.00  1.00  1.00  1.00
A_2    1.00  1.00  1.00 -1.00 -1.00
B_1    1.00 -1.00  1.00  1.00 -1.00
B_2    1.00 -1.00  1.00 -1.00  1.00
E      2.00  0.00 -2.00  0.00  0.00

     the symmetry operations in each class and the name of the first element:

     E        1
                                                                 
     2C4      3    4
                                                                 
     C2       2
                                                                 
     2s_v     5    6
                                                                 
     2s_d     7    8
                                                                 

     Band symmetry, C_4v (4mm)  point group:

     e(  1 -  1) =     -5.23634  eV     1   --> B_2  G_4 D_2'  
     e(  2 -  3) =     -5.23621  eV     2   --> E    G_5 D_5   
     e(  4 -  5) =     -5.07727  eV     2   --> A_1  G_1 D_1   
     e(  4 -  5) =     -5.07727  eV     2   --> B_1  G_3 D_2   
     e(  6 -  6) =     -0.18184  eV     1   --> A_1  G_1 D_1   
     e(  7 -  7) =     19.63753  eV     1   --> A_1  G_1 D_1   
     e(  8 -  9) =     19.63924  eV     2   --> E    G_5 D_5   
     e( 10 - 10) =     21.97439  eV     1   --> B_2  G_4 D_2'  
     e( 11 - 11) =     23.75773  eV     1   --> A_1  G_1 D_1   

 **************************************************************************

 **************************************************************************

                    xk=(   0.00000,   0.00000,   0.02000  )

     Band symmetry, C_4v (4mm)  point group:

     e(  1 -  1) =     -5.23648  eV     1   --> B_2  G_4 D_2'  
     e(  2 -  3) =     -5.23597  eV     2   --> E    G_5 D_5   
     e(  4 -  4) =     -5.07741  eV     1   --> A_1  G_1 D_1   
     e(  5 -  5) =     -5.07709  eV     1   --> B_1  G_3 D_2   
     e(  6 -  6) =     -0.17983  eV     1   --> A_1  G_1 D_1   
     e(  7 -  7) =     19.62210  eV     1   --> A_1  G_1 D_1   
     e(  8 -  9) =     19.62890  eV     2   --> E    G_5 D_5   
     e( 10 - 10) =     21.96556  eV     1   --> B_2  G_4 D_2'  
     e( 11 - 11) =     23.77536  eV     1   --> A_1  G_1 D_1   

 **************************************************************************

 **************************************************************************

                    xk=(   0.00000,   0.00000,   0.03000  )

     Band symmetry, C_4v (4mm)  point group:

     e(  1 -  1) =     -5.23671  eV     1   --> B_2  G_4 D_2'  
     e(  2 -  3) =     -5.23557  eV     2   --> E    G_5 D_5   
     e(  4 -  4) =     -5.07765  eV     1   --> A_1  G_1 D_1   
     e(  5 -  5) =     -5.07692  eV     1   --> B_1  G_3 D_2   
     e(  6 -  6) =     -0.17648  eV     1   --> A_1  G_1 D_1   
     e(  7 -  7) =     19.59668  eV     1   --> A_1  G_1 D_1   
     e(  8 -  9) =     19.61179  eV     2   --> E    G_5 D_5   
     e( 10 - 10) =     21.95104  eV     1   --> B_2  G_4 D_2'  
     e( 11 - 11) =     23.80440  eV     1   --> A_1  G_1 D_1   

 **************************************************************************

 **************************************************************************

                    xk=(   0.00000,   0.00000,   0.04000  )

     Band symmetry, C_4v (4mm)  point group:

     e(  1 -  1) =     -5.23704  eV     1   --> B_2  G_4 D_2'  
     e(  2 -  3) =     -5.23500  eV     2   --> E    G_5 D_5   
     e(  4 -  4) =     -5.07798  eV     1   --> A_1  G_1 D_1   
     e(  5 -  5) =     -5.07668  eV     1   --> B_1  G_3 D_2   
     e(  6 -  6) =     -0.17180  eV     1   --> A_1  G_1 D_1   
     e(  7 -  7) =     19.56169  eV     1   --> A_1  G_1 D_1   
     e(  8 -  9) =     19.58808  eV     2   --> E    G_5 D_5   
     e( 10 - 10) =     21.93107  eV     1   --> B_2  G_4 D_2'  
     e( 11 - 11) =     23.84430  eV     1   --> A_1  G_1 D_1   

 **************************************************************************

 **************************************************************************

                    xk=(   0.00000,   0.00000,   0.05000  )

     Band symmetry, C_4v (4mm)  point group:

     e(  1 -  1) =     -5.23746  eV     1   --> B_2  G_4 D_2'  
     e(  2 -  3) =     -5.23429  eV     2   --> E    G_5 D_5   
     e(  4 -  4) =     -5.07850  eV     1   --> A_1  G_1 D_1   
     e(  5 -  5) =     -5.07637  eV     1   --> B_1  G_3 D_2   
     e(  6 -  6) =     -0.16577  eV     1   --> A_1  G_1 D_1   
     e(  7 -  7) =     19.51765  eV     1   --> A_1  G_1 D_1   
     e(  8 -  9) =     19.55801  eV     2   --> E    G_5 D_5   
     e( 10 - 10) =     21.90598  eV     1   --> B_2  G_4 D_2'  
     e( 11 - 11) =     23.89437  eV     1   --> A_1  G_1 D_1   

 **************************************************************************

 **************************************************************************

                    xk=(   0.00000,   0.00000,   0.06000  )

     Band symmetry, C_4v (4mm)  point group:

     e(  1 -  1) =     -5.23799  eV     1   --> B_2  G_4 D_2'  
     e(  2 -  3) =     -5.23348  eV     2   --> E    G_5 D_5   
     e(  4 -  4) =     -5.07908  eV     1   --> A_1  G_1 D_1   
     e(  5 -  5) =     -5.07600  eV     1   --> B_1  G_3 D_2   
     e(  6 -  6) =     -0.15840  eV     1   --> A_1  G_1 D_1   
     e(  7 -  7) =     19.46520  eV     1   --> A_1  G_1 D_1   
     e(  8 -  9) =     19.52186  eV     2   --> E    G_5 D_5   
     e( 10 - 10) =     21.87617  eV     1   --> B_2  G_4 D_2'  
     e( 11 - 11) =     23.95373  eV     1   --> A_1  G_1 D_1   

 **************************************************************************

 **************************************************************************

                    xk=(   0.00000,   0.00000,   0.07000  )

     Band symmetry, C_4v (4mm)  point group:

     e(  1 -  1) =     -5.23859  eV     1   --> B_2  G_4 D_2'  
     e(  2 -  3) =     -5.23244  eV     2   --> E    G_5 D_5   
     e(  4 -  4) =     -5.07970  eV     1   --> A_1  G_1 D_1   
     e(  5 -  5) =     -5.07556  eV     1   --> B_1  G_3 D_2   
     e(  6 -  6) =     -0.14969  eV     1   --> A_1  G_1 D_1   
     e(  7 -  7) =     19.40501  eV     1   --> A_1  G_1 D_1   
     e(  8 -  9) =     19.47996  eV     2   --> E    G_5 D_5   
     e( 10 - 10) =     21.84205  eV     1   --> B_2  G_4 D_2'  
     e( 11 - 11) =     24.02133  eV     1   --> A_1  G_1 D_1   

 **************************************************************************

 **************************************************************************

                    xk=(   0.00000,   0.00000,   0.08000  )

     Band symmetry, C_4v (4mm)  point group:

     e(  1 -  1) =     -5.23929  eV     1   --> B_2  G_4 D_2'  
     e(  2 -  3) =     -5.23124  eV     2   --> E    G_5 D_5   
     e(  4 -  4) =     -5.08041  eV     1   --> A_1  G_1 D_1   
     e(  5 -  5) =     -5.07506  eV     1   --> B_1  G_3 D_2   
     e(  6 -  6) =     -0.13964  eV     1   --> A_1  G_1 D_1   
     e(  7 -  7) =     19.33778  eV     1   --> A_1  G_1 D_1   
     e(  8 -  9) =     19.43266  eV     2   --> E    G_5 D_5   
     e( 10 - 10) =     21.80406  eV     1   --> B_2  G_4 D_2'  
     e( 11 - 11) =     24.09595  eV     1   --> A_1  G_1 D_1   

 **************************************************************************

 **************************************************************************

                    xk=(   0.00000,   0.00000,   0.09000  )

     Band symmetry, C_4v (4mm)  point group:

     e(  1 -  1) =     -5.24007  eV     1   --> B_2  G_4 D_2'  
     e(  2 -  3) =     -5.22989  eV     2   --> E    G_5 D_5   
     e(  4 -  4) =     -5.08123  eV     1   --> A_1  G_1 D_1   
     e(  5 -  5) =     -5.07448  eV     1   --> B_1  G_3 D_2   
     e(  6 -  6) =     -0.12825  eV     1   --> A_1  G_1 D_1   
     e(  7 -  7) =     19.26419  eV     1   --> A_1  G_1 D_1   
     e(  8 -  9) =     19.38033  eV     2   --> E    G_5 D_5   
     e( 10 - 10) =     21.76263  eV     1   --> B_2  G_4 D_2'  
     e( 11 - 11) =     24.17609  eV     1   --> A_1  G_1 D_1   

 **************************************************************************

 **************************************************************************

                    xk=(   0.00000,   0.00000,   0.10000  )

     Band symmetry, C_4v (4mm)  point group:

     e(  1 -  1) =     -5.24099  eV     1   --> B_2  G_4 D_2'  
     e(  2 -  3) =     -5.22843  eV     2   --> E    G_5 D_5   
     e(  4 -  4) =     -5.08214  eV     1   --> A_1  G_1 D_1   
     e(  5 -  5) =     -5.07390  eV     1   --> B_1  G_3 D_2   
     e(  6 -  6) =     -0.11552  eV     1   --> A_1  G_1 D_1   
     e(  7 -  7) =     19.18490  eV     1   --> A_1  G_1 D_1   
     e(  8 -  9) =     19.32336  eV     2   --> E    G_5 D_5   
     e( 10 - 10) =     21.71819  eV     1   --> B_2  G_4 D_2'  
     e( 11 - 11) =     24.25986  eV     1   --> A_1  G_1 D_1   

 **************************************************************************

 **************************************************************************

                    xk=(   0.00000,   0.00000,   0.11000  )

     Band symmetry, C_4v (4mm)  point group:

     e(  1 -  1) =     -5.24195  eV     1   --> B_2  G_4 D_2'  
     e(  2 -  3) =     -5.22677  eV     2   --> E    G_5 D_5   
     e(  4 -  4) =     -5.08314  eV     1   --> A_1  G_1 D_1   
     e(  5 -  5) =     -5.07319  eV     1   --> B_1  G_3 D_2   
     e(  6 -  6) =     -0.10145  eV     1   --> A_1  G_1 D_1   
     e(  7 -  7) =     19.10053  eV     1   --> A_1  G_1 D_1   
     e(  8 -  9) =     19.26213  eV     2   --> E    G_5 D_5   
     e( 10 - 10) =     21.67114  eV     1   --> B_2  G_4 D_2'  
     e( 11 - 11) =     24.34467  eV     1   --> A_1  G_1 D_1   

 **************************************************************************

 **************************************************************************

                    xk=(   0.00000,   0.00000,   0.12000  )

     Band symmetry, C_4v (4mm)  point group:

     e(  1 -  1) =     -5.24301  eV     1   --> B_2  G_4 D_2'  
     e(  2 -  3) =     -5.22495  eV     2   --> E    G_5 D_5   
     e(  4 -  4) =     -5.08414  eV     1   --> A_1  G_1 D_1   
     e(  5 -  5) =     -5.07243  eV     1   --> B_1  G_3 D_2   
     e(  6 -  6) =     -0.08603  eV     1   --> A_1  G_1 D_1   
     e(  7 -  7) =     19.01165  eV     1   --> A_1  G_1 D_1   
     e(  8 -  9) =     19.19701  eV     2   --> E    G_5 D_5   
     e( 10 - 10) =     21.62185  eV     1   --> B_2  G_4 D_2'  
     e( 11 - 11) =     24.42673  eV     1   --> A_1  G_1 D_1   

 **************************************************************************

 **************************************************************************

                    xk=(   0.00000,   0.00000,   0.13000  )

     Band symmetry, C_4v (4mm)  point group:

     e(  1 -  1) =     -5.24415  eV     1   --> B_2  G_4 D_2'  
     e(  2 -  3) =     -5.22298  eV     2   --> E    G_5 D_5   
     e(  4 -  4) =     -5.08534  eV     1   --> A_1  G_1 D_1   
     e(  5 -  5) =     -5.07160  eV     1   --> B_1  G_3 D_2   
     e(  6 -  6) =     -0.06927  eV     1   --> A_1  G_1 D_1   
     e(  7 -  7) =     18.91876  eV     1   --> A_1  G_1 D_1   
     e(  8 -  9) =     19.12836  eV     2   --> E    G_5 D_5   
     e( 10 - 10) =     21.57065  eV     1   --> B_2  G_4 D_2'  
     e( 11 - 11) =     24.50016  eV     1   --> A_1  G_1 D_1   

 **************************************************************************

 **************************************************************************

                    xk=(   0.00000,   0.00000,   0.14000  )

     Band symmetry, C_4v (4mm)  point group:

     e(  1 -  1) =     -5.24537  eV     1   --> B_2  G_4 D_2'  
     e(  2 -  3) =     -5.22086  eV     2   --> E    G_5 D_5   
     e(  4 -  4) =     -5.08663  eV     1   --> A_1  G_1 D_1   
     e(  5 -  5) =     -5.07070  eV     1   --> B_1  G_3 D_2   
     e(  6 -  6) =     -0.05117  eV     1   --> A_1  G_1 D_1   
     e(  7 -  7) =     18.82233  eV     1   --> A_1  G_1 D_1   
     e(  8 -  9) =     19.05654  eV     2   --> E    G_5 D_5   
     e( 10 - 10) =     21.51786  eV     1   --> B_2  G_4 D_2'  
     e( 11 - 11) =     24.55578  eV     1   --> A_1  G_1 D_1   

 **************************************************************************

 **************************************************************************

                    xk=(   0.00000,   0.00000,   0.15000  )

     Band symmetry, C_4v (4mm)  point group:

     e(  1 -  1) =     -5.24668  eV     1   --> B_2  G_4 D_2'  
     e(  2 -  3) =     -5.21859  eV     2   --> E    G_5 D_5   
     e(  4 -  4) =     -5.08801  eV     1   --> A_1  G_1 D_1   
     e(  5 -  5) =     -5.06975  eV     1   --> B_1  G_3 D_2   
     e(  6 -  6) =     -0.03173  eV     1   --> A_1  G_1 D_1   
     e(  7 -  7) =     18.72277  eV     1   --> A_1  G_1 D_1   
     e(  8 -  9) =     18.98187  eV     2   --> E    G_5 D_5   
     e( 10 - 10) =     21.46376  eV     1   --> B_2  G_4 D_2'  
     e( 11 - 11) =     24.58080  eV     1   --> A_1  G_1 D_1   

 **************************************************************************

 **************************************************************************

                    xk=(   0.00000,   0.00000,   0.16000  )

     Band symmetry, C_4v (4mm)  point group:

     e(  1 -  1) =     -5.24817  eV     1   --> B_2  G_4 D_2'  
     e(  2 -  3) =     -5.21620  eV     2   --> E    G_5 D_5   
     e(  4 -  4) =     -5.08952  eV     1   --> A_1  G_1 D_1   
     e(  5 -  5) =     -5.06876  eV     1   --> B_1  G_3 D_2   
     e(  6 -  6) =     -0.01093  eV     1   --> A_1  G_1 D_1   
     e(  7 -  7) =     18.62042  eV     1   --> A_1  G_1 D_1   
     e(  8 -  9) =     18.90467  eV     2   --> E    G_5 D_5   
     e( 10 - 10) =     21.40859  eV     1   --> B_2  G_4 D_2'  
     e( 11 - 11) =     24.56266  eV     1   --> A_1  G_1 D_1   

 **************************************************************************

 **************************************************************************

                    xk=(   0.00000,   0.00000,   0.17000  )

     Band symmetry, C_4v (4mm)  point group:

     e(  1 -  1) =     -5.24965  eV     1   --> B_2  G_4 D_2'  
     e(  2 -  3) =     -5.21364  eV     2   --> E    G_5 D_5   
     e(  4 -  4) =     -5.09110  eV     1   --> A_1  G_1 D_1   
     e(  5 -  5) =     -5.06769  eV     1   --> B_1  G_3 D_2   
     e(  6 -  6) =      0.01120  eV     1   --> A_1  G_1 D_1   
     e(  7 -  7) =     18.51560  eV     1   --> A_1  G_1 D_1   
     e(  8 -  9) =     18.82524  eV     2   --> E    G_5 D_5   
     e( 10 - 10) =     21.35258  eV     1   --> B_2  G_4 D_2'  
     e( 11 - 11) =     24.49773  eV     1   --> A_1  G_1 D_1   

 **************************************************************************

 **************************************************************************

                    xk=(   0.00000,   0.00000,   0.18000  )

     Band symmetry, C_4v (4mm)  point group:

     e(  1 -  1) =     -5.25120  eV     1   --> B_2  G_4 D_2'  
     e(  2 -  3) =     -5.21089  eV     2   --> E    G_5 D_5   
     e(  4 -  4) =     -5.09266  eV     1   --> A_1  G_1 D_1   
     e(  5 -  5) =     -5.06655  eV     1   --> B_1  G_3 D_2   
     e(  6 -  6) =      0.03468  eV     1   --> A_1  G_1 D_1   
     e(  7 -  7) =     18.40858  eV     1   --> A_1  G_1 D_1   
     e(  8 -  9) =     18.74383  eV     2   --> E    G_5 D_5   
     e( 10 - 10) =     21.29592  eV     1   --> B_2  G_4 D_2'  
     e( 11 - 11) =     24.39404  eV     1   --> A_1  G_1 D_1   

 **************************************************************************

 **************************************************************************

                    xk=(   0.00000,   0.00000,   0.19000  )

     Band symmetry, C_4v (4mm)  point group:

     e(  1 -  1) =     -5.25283  eV     1   --> B_2  G_4 D_2'  
     e(  2 -  3) =     -5.20805  eV     2   --> E    G_5 D_5   
     e(  4 -  4) =     -5.09443  eV     1   --> A_1  G_1 D_1   
     e(  5 -  5) =     -5.06535  eV     1   --> B_1  G_3 D_2   
     e(  6 -  6) =      0.05951  eV     1   --> A_1  G_1 D_1   
     e(  7 -  7) =     18.29958  eV     1   --> A_1  G_1 D_1   
     e(  8 -  9) =     18.66071  eV     2   --> E    G_5 D_5   
     e( 10 - 10) =     21.23879  eV     1   --> B_2  G_4 D_2'  
     e( 11 - 11) =     24.26380  eV     1   --> A_1  G_1 D_1   

 **************************************************************************

 **************************************************************************

                    xk=(   0.00000,   0.00000,   0.20000  )

     Band symmetry, C_4v (4mm)  point group:

     e(  1 -  1) =     -5.25455  eV     1   --> B_2  G_4 D_2'  
     e(  2 -  3) =     -5.20512  eV     2   --> E    G_5 D_5   
     e(  4 -  4) =     -5.09639  eV     1   --> A_1  G_1 D_1   
     e(  5 -  5) =     -5.06411  eV     1   --> B_1  G_3 D_2   
     e(  6 -  6) =      0.08568  eV     1   --> A_1  G_1 D_1   
     e(  7 -  7) =     18.18881  eV     1   --> A_1  G_1 D_1   
     e(  8 -  9) =     18.57611  eV     2   --> E    G_5 D_5   
     e( 10 - 10) =     21.18134  eV     1   --> B_2  G_4 D_2'  
     e( 11 - 11) =     24.11699  eV     1   --> A_1  G_1 D_1   

 **************************************************************************

 **************************************************************************

                    xk=(   0.00000,   0.00000,   0.21000  )

     Band symmetry, C_4v (4mm)  point group:

     e(  1 -  1) =     -5.25634  eV     1   --> B_2  G_4 D_2'  
     e(  2 -  3) =     -5.20201  eV     2   --> E    G_5 D_5   
     e(  4 -  4) =     -5.09835  eV     1   --> A_1  G_1 D_1   
     e(  5 -  5) =     -5.06280  eV     1   --> B_1  G_3 D_2   
     e(  6 -  6) =      0.11320  eV     1   --> A_1  G_1 D_1   
     e(  7 -  7) =     18.07643  eV     1   --> A_1  G_1 D_1   
     e(  8 -  9) =     18.49023  eV     2   --> E    G_5 D_5   
     e( 10 - 10) =     21.12371  eV     1   --> B_2  G_4 D_2'  
     e( 11 - 11) =     23.96015  eV     1   --> A_1  G_1 D_1   

 **************************************************************************

 **************************************************************************

                    xk=(   0.00000,   0.00000,   0.22000  )

     Band symmetry, C_4v (4mm)  point group:

     e(  1 -  1) =     -5.25819  eV     1   --> B_2  G_4 D_2'  
     e(  2 -  3) =     -5.19876  eV     2   --> E    G_5 D_5   
     e(  4 -  4) =     -5.10040  eV     1   --> A_1  G_1 D_1   
     e(  5 -  5) =     -5.06144  eV     1   --> B_1  G_3 D_2   
     e(  6 -  6) =      0.14207  eV     1   --> A_1  G_1 D_1   
     e(  7 -  7) =     17.96259  eV     1   --> A_1  G_1 D_1   
     e(  8 -  9) =     18.40328  eV     2   --> E    G_5 D_5   
     e( 10 - 10) =     21.06601  eV     1   --> B_2  G_4 D_2'  
     e( 11 - 11) =     23.79731  eV     1   --> A_1  G_1 D_1   

 **************************************************************************

 **************************************************************************

                    xk=(   0.00000,   0.00000,   0.23000  )

     Band symmetry, C_4v (4mm)  point group:

     e(  1 -  1) =     -5.26012  eV     1   --> B_2  G_4 D_2'  
     e(  2 -  3) =     -5.19538  eV     2   --> E    G_5 D_5   
     e(  4 -  4) =     -5.10255  eV     1   --> A_1  G_1 D_1   
     e(  5 -  5) =     -5.06003  eV     1   --> B_1  G_3 D_2   
     e(  6 -  6) =      0.17228  eV     1   --> A_1  G_1 D_1   
     e(  7 -  7) =     17.84738  eV     1   --> A_1  G_1 D_1   
     e(  8 -  9) =     18.31544  eV     2   --> E    G_5 D_5   
     e( 10 - 10) =     21.00835  eV     1   --> B_2  G_4 D_2'  
     e( 11 - 11) =     23.63099  eV     1   --> A_1  G_1 D_1   

 **************************************************************************

 **************************************************************************

                    xk=(   0.00000,   0.00000,   0.24000  )

     Band symmetry, C_4v (4mm)  point group:

     e(  1 -  1) =     -5.26216  eV     1   --> B_2  G_4 D_2'  
     e(  2 -  3) =     -5.19196  eV     2   --> E    G_5 D_5   
     e(  4 -  4) =     -5.10480  eV     1   --> A_1  G_1 D_1   
     e(  5 -  5) =     -5.05857  eV     1   --> B_1  G_3 D_2   
     e(  6 -  6) =      0.20384  eV     1   --> A_1  G_1 D_1   
     e(  7 -  7) =     17.73093  eV     1   --> A_1  G_1 D_1   
     e(  8 -  9) =     18.22688  eV     2   --> E    G_5 D_5   
     e( 10 - 10) =     20.95083  eV     1   --> B_2  G_4 D_2'  
     e( 11 - 11) =     23.46281  eV     1   --> A_1  G_1 D_1   

 **************************************************************************

 **************************************************************************

                    xk=(   0.00000,   0.00000,   0.25000  )

     Band symmetry, C_4v (4mm)  point group:

     e(  1 -  1) =     -5.26423  eV     1   --> B_2  G_4 D_2'  
     e(  2 -  3) =     -5.18833  eV     2   --> E    G_5 D_5   
     e(  4 -  4) =     -5.10713  eV     1   --> A_1  G_1 D_1   
     e(  5 -  5) =     -5.05706  eV     1   --> B_1  G_3 D_2   
     e(  6 -  6) =      0.23674  eV     1   --> A_1  G_1 D_1   
     e(  7 -  7) =     17.61329  eV     1   --> A_1  G_1 D_1   
     e(  8 -  9) =     18.13775  eV     2   --> E    G_5 D_5   
     e( 10 - 10) =     20.89353  eV     1   --> B_2  G_4 D_2'  
     e( 11 - 11) =     23.29389  eV     1   --> A_1  G_1 D_1   

 **************************************************************************

 **************************************************************************

                    xk=(   0.00000,   0.00000,   0.26000  )

     Band symmetry, C_4v (4mm)  point group:

     e(  1 -  1) =     -5.26636  eV     1   --> B_2  G_4 D_2'  
     e(  2 -  3) =     -5.18457  eV     2   --> E    G_5 D_5   
     e(  4 -  4) =     -5.10955  eV     1   --> A_1  G_1 D_1   
     e(  5 -  5) =     -5.05550  eV     1   --> B_1  G_3 D_2   
     e(  6 -  6) =      0.27099  eV     1   --> A_1  G_1 D_1   
     e(  7 -  7) =     17.49454  eV     1   --> A_1  G_1 D_1   
     e(  8 -  9) =     18.04819  eV     2   --> E    G_5 D_5   
     e( 10 - 10) =     20.83652  eV     1   --> B_2  G_4 D_2'  
     e( 11 - 11) =     23.12498  eV     1   --> A_1  G_1 D_1   

 **************************************************************************

 **************************************************************************

                    xk=(   0.00000,   0.00000,   0.27000  )

     Band symmetry, C_4v (4mm)  point group:

     e(  1 -  1) =     -5.26852  eV     1   --> B_2  G_4 D_2'  
     e(  2 -  3) =     -5.18067  eV     2   --> E    G_5 D_5   
     e(  4 -  4) =     -5.11206  eV     1   --> A_1  G_1 D_1   
     e(  5 -  5) =     -5.05389  eV     1   --> B_1  G_3 D_2   
     e(  6 -  6) =      0.30658  eV     1   --> A_1  G_1 D_1   
     e(  7 -  7) =     17.37473  eV     1   --> A_1  G_1 D_1   
     e(  8 -  9) =     17.95833  eV     2   --> E    G_5 D_5   
     e( 10 - 10) =     20.77987  eV     1   --> B_2  G_4 D_2'  
     e( 11 - 11) =     22.95666  eV     1   --> A_1  G_1 D_1   

 **************************************************************************

 **************************************************************************

                    xk=(   0.00000,   0.00000,   0.28000  )

     Band symmetry, C_4v (4mm)  point group:

     e(  1 -  1) =     -5.27078  eV     1   --> B_2  G_4 D_2'  
     e(  2 -  3) =     -5.17668  eV     2   --> E    G_5 D_5   
     e(  4 -  4) =     -5.11466  eV     1   --> A_1  G_1 D_1   
     e(  5 -  5) =     -5.05223  eV     1   --> B_1  G_3 D_2   
     e(  6 -  6) =      0.34352  eV     1   --> A_1  G_1 D_1   
     e(  7 -  7) =     17.25389  eV     1   --> A_1  G_1 D_1   
     e(  8 -  9) =     17.86828  eV     2   --> E    G_5 D_5   
     e( 10 - 10) =     20.72363  eV     1   --> B_2  G_4 D_2'  
     e( 11 - 11) =     22.78937  eV     1   --> A_1  G_1 D_1   

 **************************************************************************

 **************************************************************************

                    xk=(   0.00000,   0.00000,   0.29000  )

     Band symmetry, C_4v (4mm)  point group:

     e(  1 -  1) =     -5.27310  eV     1   --> B_2  G_4 D_2'  
     e(  2 -  3) =     -5.17258  eV     2   --> E    G_5 D_5   
     e(  4 -  4) =     -5.11732  eV     1   --> A_1  G_1 D_1   
     e(  5 -  5) =     -5.05053  eV     1   --> B_1  G_3 D_2   
     e(  6 -  6) =      0.38180  eV     1   --> A_1  G_1 D_1   
     e(  7 -  7) =     17.13206  eV     1   --> A_1  G_1 D_1   
     e(  8 -  9) =     17.77817  eV     2   --> E    G_5 D_5   
     e( 10 - 10) =     20.66786  eV     1   --> B_2  G_4 D_2'  
     e( 11 - 11) =     22.62343  eV     1   --> A_1  G_1 D_1   

 **************************************************************************

 **************************************************************************

                    xk=(   0.00000,   0.00000,   0.30000  )

     Band symmetry, C_4v (4mm)  point group:

     e(  1 -  1) =     -5.27547  eV     1   --> B_2  G_4 D_2'  
     e(  2 -  3) =     -5.16838  eV     2   --> E    G_5 D_5   
     e(  4 -  4) =     -5.12009  eV     1   --> A_1  G_1 D_1   
     e(  5 -  5) =     -5.04879  eV     1   --> B_1  G_3 D_2   
     e(  6 -  6) =      0.42142  eV     1   --> A_1  G_1 D_1   
     e(  7 -  7) =     17.00925  eV     1   --> A_1  G_1 D_1   
     e(  8 -  9) =     17.68809  eV     2   --> E    G_5 D_5   
     e( 10 - 10) =     20.61259  eV     1   --> B_2  G_4 D_2'  
     e( 11 - 11) =     22.45913  eV     1   --> A_1  G_1 D_1   

 **************************************************************************

 **************************************************************************

                    xk=(   0.00000,   0.00000,   0.31000  )

     Band symmetry, C_4v (4mm)  point group:

     e(  1 -  1) =     -5.27795  eV     1   --> B_2  G_4 D_2'  
     e(  2 -  3) =     -5.16414  eV     2   --> E    G_5 D_5   
     e(  4 -  4) =     -5.12294  eV     1   --> A_1  G_1 D_1   
     e(  5 -  5) =     -5.04703  eV     1   --> B_1  G_3 D_2   
     e(  6 -  6) =      0.46239  eV     1   --> A_1  G_1 D_1   
     e(  7 -  7) =     16.88547  eV     1   --> A_1  G_1 D_1   
     e(  8 -  9) =     17.59813  eV     2   --> E    G_5 D_5   
     e( 10 - 10) =     20.55787  eV     1   --> B_2  G_4 D_2'  
     e( 11 - 11) =     22.29670  eV     1   --> A_1  G_1 D_1   

 **************************************************************************

 **************************************************************************

                    xk=(   0.00000,   0.00000,   0.32000  )

     Band symmetry, C_4v (4mm)  point group:

     e(  1 -  1) =     -5.28043  eV     1   --> B_2  G_4 D_2'  
     e(  2 -  3) =     -5.15973  eV     2   --> E    G_5 D_5   
     e(  4 -  4) =     -5.12588  eV     1   --> A_1  G_1 D_1   
     e(  5 -  5) =     -5.04521  eV     1   --> B_1  G_3 D_2   
     e(  6 -  6) =      0.50469  eV     1   --> A_1  G_1 D_1   
     e(  7 -  7) =     16.76075  eV     1   --> A_1  G_1 D_1   
     e(  8 -  9) =     17.50838  eV     2   --> E    G_5 D_5   
     e( 10 - 10) =     20.50374  eV     1   --> B_2  G_4 D_2'  
     e( 11 - 11) =     22.13632  eV     1   --> A_1  G_1 D_1   

 **************************************************************************

 **************************************************************************

                    xk=(   0.00000,   0.00000,   0.33000  )

     Band symmetry, C_4v (4mm)  point group:

     e(  1 -  1) =     -5.28297  eV     1   --> B_2  G_4 D_2'  
     e(  2 -  3) =     -5.15522  eV     2   --> E    G_5 D_5   
     e(  4 -  4) =     -5.12894  eV     1   --> A_1  G_1 D_1   
     e(  5 -  5) =     -5.04349  eV     1   --> B_1  G_3 D_2   
     e(  6 -  6) =      0.54833  eV     1   --> A_1  G_1 D_1   
     e(  7 -  7) =     16.63507  eV     1   --> A_1  G_1 D_1   
     e(  8 -  9) =     17.41892  eV     2   --> E    G_5 D_5   
     e( 10 - 10) =     20.45022  eV     1   --> B_2  G_4 D_2'  
     e( 11 - 11) =     21.97816  eV     1   --> A_1  G_1 D_1   

 **************************************************************************

 **************************************************************************

                    xk=(   0.00000,   0.00000,   0.34000  )

     Band symmetry, C_4v (4mm)  point group:

     e(  1 -  1) =     -5.28555  eV     1   --> B_2  G_4 D_2'  
     e(  2 -  3) =     -5.15062  eV     2   --> E    G_5 D_5   
     e(  4 -  4) =     -5.13204  eV     1   --> A_1  G_1 D_1   
     e(  5 -  5) =     -5.04160  eV     1   --> B_1  G_3 D_2   
     e(  6 -  6) =      0.59330  eV     1   --> A_1  G_1 D_1   
     e(  7 -  7) =     16.50844  eV     1   --> A_1  G_1 D_1   
     e(  8 -  9) =     17.32983  eV     2   --> E    G_5 D_5   
     e( 10 - 10) =     20.39734  eV     1   --> B_2  G_4 D_2'  
     e( 11 - 11) =     21.82237  eV     1   --> A_1  G_1 D_1   

 **************************************************************************

 **************************************************************************

                    xk=(   0.00000,   0.00000,   0.35000  )

     Band symmetry, C_4v (4mm)  point group:

     e(  1 -  1) =     -5.28817  eV     1   --> B_2  G_4 D_2'  
     e(  2 -  3) =     -5.14593  eV     2   --> E    G_5 D_5   
     e(  4 -  4) =     -5.13521  eV     1   --> A_1  G_1 D_1   
     e(  5 -  5) =     -5.03967  eV     1   --> B_1  G_3 D_2   
     e(  6 -  6) =      0.63961  eV     1   --> A_1  G_1 D_1   
     e(  7 -  7) =     16.38086  eV     1   --> A_1  G_1 D_1   
     e(  8 -  9) =     17.24118  eV     2   --> E    G_5 D_5   
     e( 10 - 10) =     20.34513  eV     1   --> B_2  G_4 D_2'  
     e( 11 - 11) =     21.66906  eV     1   --> A_1  G_1 D_1   

 **************************************************************************

 **************************************************************************

                    xk=(   0.00000,   0.00000,   0.36000  )

     Band symmetry, C_4v (4mm)  point group:

     e(  1 -  1) =     -5.29083  eV     1   --> B_2  G_4 D_2'  
     e(  2 -  3) =     -5.14116  eV     2   --> E    G_5 D_5   
     e(  4 -  4) =     -5.13846  eV     1   --> A_1  G_1 D_1   
     e(  5 -  5) =     -5.03771  eV     1   --> B_1  G_3 D_2   
     e(  6 -  6) =      0.68724  eV     1   --> A_1  G_1 D_1   
     e(  7 -  7) =     16.25233  eV     1   --> A_1  G_1 D_1   
     e(  8 -  9) =     17.15303  eV     2   --> E    G_5 D_5   
     e( 10 - 10) =     20.29362  eV     1   --> B_2  G_4 D_2'  
     e( 11 - 11) =     21.51835  eV     1   --> A_1  G_1 D_1   

 **************************************************************************

 **************************************************************************

                    xk=(   0.00000,   0.00000,   0.37000  )

     Band symmetry, C_4v (4mm)  point group:

     e(  1 -  1) =     -5.29352  eV     1   --> B_2  G_4 D_2'  
     e(  2 -  2) =     -5.14176  eV     1   --> A_1  G_1 D_1   
     e(  3 -  4) =     -5.13625  eV     2   --> E    G_5 D_5   
     e(  5 -  5) =     -5.03562  eV     1   --> B_1  G_3 D_2   
     e(  6 -  6) =      0.73620  eV     1   --> A_1  G_1 D_1   
     e(  7 -  7) =     16.12284  eV     1   --> A_1  G_1 D_1   
     e(  8 -  9) =     17.06543  eV     2   --> E    G_5 D_5   
     e( 10 - 10) =     20.24281  eV     1   --> B_2  G_4 D_2'  
     e( 11 - 11) =     21.37034  eV     1   --> A_1  G_1 D_1   

 **************************************************************************

 **************************************************************************

                    xk=(   0.00000,   0.00000,   0.38000  )

     Band symmetry, C_4v (4mm)  point group:

     e(  1 -  1) =     -5.29626  eV     1   --> B_2  G_4 D_2'  
     e(  2 -  2) =     -5.14515  eV     1   --> A_1  G_1 D_1   
     e(  3 -  4) =     -5.13132  eV     2   --> E    G_5 D_5   
     e(  5 -  5) =     -5.03360  eV     1   --> B_1  G_3 D_2   
     e(  6 -  6) =      0.78649  eV     1   --> A_1  G_1 D_1   
     e(  7 -  7) =     15.99240  eV     1   --> A_1  G_1 D_1   
     e(  8 -  9) =     16.97846  eV     2   --> E    G_5 D_5   
     e( 10 - 10) =     20.19273  eV     1   --> B_2  G_4 D_2'  
     e( 11 - 11) =     21.22510  eV     1   --> A_1  G_1 D_1   

 **************************************************************************

 **************************************************************************

                    xk=(   0.00000,   0.00000,   0.39000  )

     Band symmetry, C_4v (4mm)  point group:

     e(  1 -  1) =     -5.29903  eV     1   --> B_2  G_4 D_2'  
     e(  2 -  2) =     -5.14868  eV     1   --> A_1  G_1 D_1   
     e(  3 -  4) =     -5.12633  eV     2   --> E    G_5 D_5   
     e(  5 -  5) =     -5.03156  eV     1   --> B_1  G_3 D_2   
     e(  6 -  6) =      0.83809  eV     1   --> A_1  G_1 D_1   
     e(  7 -  7) =     15.86100  eV     1   --> A_1  G_1 D_1   
     e(  8 -  9) =     16.89215  eV     2   --> E    G_5 D_5   
     e( 10 - 10) =     20.14338  eV     1   --> B_2  G_4 D_2'  
     e( 11 - 11) =     21.08271  eV     1   --> A_1  G_1 D_1   

 **************************************************************************

 **************************************************************************

                    xk=(   0.00000,   0.00000,   0.40000  )

     Band symmetry, C_4v (4mm)  point group:

     e(  1 -  1) =     -5.30183  eV     1   --> B_2  G_4 D_2'  
     e(  2 -  2) =     -5.15219  eV     1   --> A_1  G_1 D_1   
     e(  3 -  4) =     -5.12126  eV     2   --> E    G_5 D_5   
     e(  5 -  5) =     -5.02950  eV     1   --> B_1  G_3 D_2   
     e(  6 -  6) =      0.89101  eV     1   --> A_1  G_1 D_1   
     e(  7 -  7) =     15.72864  eV     1   --> A_1  G_1 D_1   
     e(  8 -  9) =     16.80657  eV     2   --> E    G_5 D_5   
     e( 10 - 10) =     20.09480  eV     1   --> B_2  G_4 D_2'  
     e( 11 - 11) =     20.94324  eV     1   --> A_1  G_1 D_1   

 **************************************************************************

 **************************************************************************

                    xk=(   0.00000,   0.00000,   0.41000  )

     Band symmetry, C_4v (4mm)  point group:

     e(  1 -  1) =     -5.30465  eV     1   --> B_2  G_4 D_2'  
     e(  2 -  2) =     -5.15577  eV     1   --> A_1  G_1 D_1   
     e(  3 -  4) =     -5.11612  eV     2   --> E    G_5 D_5   
     e(  5 -  5) =     -5.02741  eV     1   --> B_1  G_3 D_2   
     e(  6 -  6) =      0.94524  eV     1   --> A_1  G_1 D_1   
     e(  7 -  7) =     15.59534  eV     1   --> A_1  G_1 D_1   
     e(  8 -  9) =     16.72175  eV     2   --> E    G_5 D_5   
     e( 10 - 10) =     20.04698  eV     1   --> B_2  G_4 D_2'  
     e( 11 - 11) =     20.80674  eV     1   --> A_1  G_1 D_1   

 **************************************************************************

 **************************************************************************

                    xk=(   0.00000,   0.00000,   0.42000  )

     Band symmetry, C_4v (4mm)  point group:

     e(  1 -  1) =     -5.30747  eV     1   --> B_2  G_4 D_2'  
     e(  2 -  2) =     -5.15939  eV     1   --> A_1  G_1 D_1   
     e(  3 -  4) =     -5.11085  eV     2   --> E    G_5 D_5   
     e(  5 -  5) =     -5.02529  eV     1   --> B_1  G_3 D_2   
     e(  6 -  6) =      1.00078  eV     1   --> A_1  G_1 D_1   
     e(  7 -  7) =     15.46108  eV     1   --> A_1  G_1 D_1   
     e(  8 -  9) =     16.63775  eV     2   --> E    G_5 D_5   
     e( 10 - 10) =     19.99994  eV     1   --> B_2  G_4 D_2'  
     e( 11 - 11) =     20.67326  eV     1   --> A_1  G_1 D_1   

 **************************************************************************

 **************************************************************************

                    xk=(   0.00000,   0.00000,   0.43000  )

     Band symmetry, C_4v (4mm)  point group:

     e(  1 -  1) =     -5.31035  eV     1   --> B_2  G_4 D_2'  
     e(  2 -  2) =     -5.16308  eV     1   --> A_1  G_1 D_1   
     e(  3 -  4) =     -5.10561  eV     2   --> E    G_5 D_5   
     e(  5 -  5) =     -5.02316  eV     1   --> B_1  G_3 D_2   
     e(  6 -  6) =      1.05762  eV     1   --> A_1  G_1 D_1   
     e(  7 -  7) =     15.32590  eV     1   --> A_1  G_1 D_1   
     e(  8 -  9) =     16.55459  eV     2   --> E    G_5 D_5   
     e( 10 - 10) =     19.95368  eV     1   --> B_2  G_4 D_2'  
     e( 11 - 11) =     20.54282  eV     1   --> A_1  G_1 D_1   

 **************************************************************************

 **************************************************************************

                    xk=(   0.00000,   0.00000,   0.44000  )

     Band symmetry, C_4v (4mm)  point group:

     e(  1 -  1) =     -5.31338  eV     1   --> B_2  G_4 D_2'  
     e(  2 -  2) =     -5.16685  eV     1   --> A_1  G_1 D_1   
     e(  3 -  4) =     -5.10039  eV     2   --> E    G_5 D_5   
     e(  5 -  5) =     -5.02112  eV     1   --> B_1  G_3 D_2   
     e(  6 -  6) =      1.11575  eV     1   --> A_1  G_1 D_1   
     e(  7 -  7) =     15.18979  eV     1   --> A_1  G_1 D_1   
     e(  8 -  9) =     16.47233  eV     2   --> E    G_5 D_5   
     e( 10 - 10) =     19.90821  eV     1   --> B_2  G_4 D_2'  
     e( 11 - 11) =     20.41547  eV     1   --> A_1  G_1 D_1   

 **************************************************************************

 **************************************************************************

                    xk=(   0.00000,   0.00000,   0.45000  )

     Band symmetry, C_4v (4mm)  point group:

     e(  1 -  1) =     -5.31629  eV     1   --> B_2  G_4 D_2'  
     e(  2 -  2) =     -5.17064  eV     1   --> A_1  G_1 D_1   
     e(  3 -  4) =     -5.09506  eV     2   --> E    G_5 D_5   
     e(  5 -  5) =     -5.01896  eV     1   --> B_1  G_3 D_2   
     e(  6 -  6) =      1.17517  eV     1   --> A_1  G_1 D_1   
     e(  7 -  7) =     15.05278  eV     1   --> A_1  G_1 D_1   
     e(  8 -  9) =     16.39100  eV     2   --> E    G_5 D_5   
     e( 10 - 10) =     19.86354  eV     1   --> B_2  G_4 D_2'  
     e( 11 - 11) =     20.29121  eV     1   --> A_1  G_1 D_1   

 **************************************************************************

 **************************************************************************

                    xk=(   0.00000,   0.00000,   0.46000  )

     Band symmetry, C_4v (4mm)  point group:

     e(  1 -  1) =     -5.31922  eV     1   --> B_2  G_4 D_2'  
     e(  2 -  2) =     -5.17446  eV     1   --> A_1  G_1 D_1   
     e(  3 -  4) =     -5.08968  eV     2   --> E    G_5 D_5   
     e(  5 -  5) =     -5.01680  eV     1   --> B_1  G_3 D_2   
     e(  6 -  6) =      1.23588  eV     1   --> A_1  G_1 D_1   
     e(  7 -  7) =     14.91490  eV     1   --> A_1  G_1 D_1   
     e(  8 -  9) =     16.31063  eV     2   --> E    G_5 D_5   
     e( 10 - 10) =     19.81969  eV     1   --> B_2  G_4 D_2'  
     e( 11 - 11) =     20.17007  eV     1   --> A_1  G_1 D_1   

 **************************************************************************

 **************************************************************************

                    xk=(   0.00000,   0.00000,   0.47000  )

     Band symmetry, C_4v (4mm)  point group:

     e(  1 -  1) =     -5.32215  eV     1   --> B_2  G_4 D_2'  
     e(  2 -  2) =     -5.17833  eV     1   --> A_1  G_1 D_1   
     e(  3 -  4) =     -5.08427  eV     2   --> E    G_5 D_5   
     e(  5 -  5) =     -5.01462  eV     1   --> B_1  G_3 D_2   
     e(  6 -  6) =      1.29785  eV     1   --> A_1  G_1 D_1   
     e(  7 -  7) =     14.77616  eV     1   --> A_1  G_1 D_1   
     e(  8 -  9) =     16.23126  eV     2   --> E    G_5 D_5   
     e( 10 - 10) =     19.77664  eV     1   --> B_2  G_4 D_2'  
     e( 11 - 11) =     20.05204  eV     1   --> A_1  G_1 D_1   

 **************************************************************************

 **************************************************************************

                    xk=(   0.00000,   0.00000,   0.48000  )

     Band symmetry, C_4v (4mm)  point group:

     e(  1 -  1) =     -5.32509  eV     1   --> B_2  G_4 D_2'  
     e(  2 -  2) =     -5.18223  eV     1   --> A_1  G_1 D_1   
     e(  3 -  4) =     -5.07884  eV     2   --> E    G_5 D_5   
     e(  5 -  5) =     -5.01244  eV     1   --> B_1  G_3 D_2   
     e(  6 -  6) =      1.36110  eV     1   --> A_1  G_1 D_1   
     e(  7 -  7) =     14.63661  eV     1   --> A_1  G_1 D_1   
     e(  8 -  9) =     16.15292  eV     2   --> E    G_5 D_5   
     e( 10 - 10) =     19.73441  eV     1   --> B_2  G_4 D_2'  
     e( 11 - 11) =     19.93714  eV     1   --> A_1  G_1 D_1   

 **************************************************************************

 **************************************************************************

                    xk=(   0.00000,   0.00000,   0.49000  )

     Band symmetry, C_4v (4mm)  point group:

     e(  1 -  1) =     -5.32804  eV     1   --> B_2  G_4 D_2'  
     e(  2 -  2) =     -5.18616  eV     1   --> A_1  G_1 D_1   
     e(  3 -  4) =     -5.07338  eV     2   --> E    G_5 D_5   
     e(  5 -  5) =     -5.01025  eV     1   --> B_1  G_3 D_2   
     e(  6 -  6) =      1.42560  eV     1   --> A_1  G_1 D_1   
     e(  7 -  7) =     14.49627  eV     1   --> A_1  G_1 D_1   
     e(  8 -  9) =     16.07564  eV     2   --> E    G_5 D_5   
     e( 10 - 10) =     19.69300  eV     1   --> B_2  G_4 D_2'  
     e( 11 - 11) =     19.82535  eV     1   --> A_1  G_1 D_1   

 **************************************************************************

 **************************************************************************

                    xk=(   0.00000,   0.00000,   0.50000  )

     Band symmetry, C_4v (4mm)  point group:

     e(  1 -  1) =     -5.33099  eV     1   --> B_2  G_4 D_2'  
     e(  2 -  2) =     -5.19012  eV     1   --> A_1  G_1 D_1   
     e(  3 -  4) =     -5.06790  eV     2   --> E    G_5 D_5   
     e(  5 -  5) =     -5.00806  eV     1   --> B_1  G_3 D_2   
     e(  6 -  6) =      1.49135  eV     1   --> A_1  G_1 D_1   
     e(  7 -  7) =     14.35518  eV     1   --> A_1  G_1 D_1   
     e(  8 -  9) =     15.99945  eV     2   --> E    G_5 D_5   
     e( 10 - 10) =     19.65241  eV     1   --> B_2  G_4 D_2'  
     e( 11 - 11) =     19.71666  eV     1   --> A_1  G_1 D_1   

 **************************************************************************

 **************************************************************************

                    xk=(   0.00000,   0.00000,   0.51000  )

     Band symmetry, C_4v (4mm)  point group:

     e(  1 -  1) =     -5.33393  eV     1   --> B_2  G_4 D_2'  
     e(  2 -  2) =     -5.19410  eV     1   --> A_1  G_1 D_1   
     e(  3 -  4) =     -5.06241  eV     2   --> E    G_5 D_5   
     e(  5 -  5) =     -5.00587  eV     1   --> B_1  G_3 D_2   
     e(  6 -  6) =      1.55833  eV     1   --> A_1  G_1 D_1   
     e(  7 -  7) =     14.21340  eV     1   --> A_1  G_1 D_1   
     e(  8 -  9) =     15.92438  eV     2   --> E    G_5 D_5   
     e( 10 - 10) =     19.61104  eV     1   --> A_1  G_1 D_1   
     e( 11 - 11) =     19.61264  eV     1   --> B_2  G_4 D_2'  

 **************************************************************************

 **************************************************************************

                    xk=(   0.00000,   0.00000,   0.52000  )

     Band symmetry, C_4v (4mm)  point group:

     e(  1 -  1) =     -5.33688  eV     1   --> B_2  G_4 D_2'  
     e(  2 -  2) =     -5.19811  eV     1   --> A_1  G_1 D_1   
     e(  3 -  4) =     -5.05692  eV     2   --> E    G_5 D_5   
     e(  5 -  5) =     -5.00368  eV     1   --> B_1  G_3 D_2   
     e(  6 -  6) =      1.62655  eV     1   --> A_1  G_1 D_1   
     e(  7 -  7) =     14.07096  eV     1   --> A_1  G_1 D_1   
     e(  8 -  9) =     15.85045  eV     2   --> E    G_5 D_5   
     e( 10 - 10) =     19.50849  eV     1   --> A_1  G_1 D_1   
     e( 11 - 11) =     19.57371  eV     1   --> B_2  G_4 D_2'  

 **************************************************************************

 **************************************************************************

                    xk=(   0.00000,   0.00000,   0.53000  )

     Band symmetry, C_4v (4mm)  point group:

     e(  1 -  1) =     -5.33981  eV     1   --> B_2  G_4 D_2'  
     e(  2 -  2) =     -5.20197  eV     1   --> A_1  G_1 D_1   
     e(  3 -  4) =     -5.05134  eV     2   --> E    G_5 D_5   
     e(  5 -  5) =     -5.00149  eV     1   --> B_1  G_3 D_2   
     e(  6 -  6) =      1.69598  eV     1   --> A_1  G_1 D_1   
     e(  7 -  7) =     13.92791  eV     1   --> A_1  G_1 D_1   
     e(  8 -  9) =     15.77769  eV     2   --> E    G_5 D_5   
     e( 10 - 10) =     19.40897  eV     1   --> A_1  G_1 D_1   
     e( 11 - 11) =     19.53560  eV     1   --> B_2  G_4 D_2'  

 **************************************************************************

 **************************************************************************

                    xk=(   0.00000,   0.00000,   0.54000  )

     Band symmetry, C_4v (4mm)  point group:

     e(  1 -  1) =     -5.34274  eV     1   --> B_2  G_4 D_2'  
     e(  2 -  2) =     -5.20600  eV     1   --> A_1  G_1 D_1   
     e(  3 -  4) =     -5.04585  eV     2   --> E    G_5 D_5   
     e(  5 -  5) =     -4.99931  eV     1   --> B_1  G_3 D_2   
     e(  6 -  6) =      1.76662  eV     1   --> A_1  G_1 D_1   
     e(  7 -  7) =     13.78432  eV     1   --> A_1  G_1 D_1   
     e(  8 -  9) =     15.70613  eV     2   --> E    G_5 D_5   
     e( 10 - 10) =     19.31244  eV     1   --> A_1  G_1 D_1   
     e( 11 - 11) =     19.49832  eV     1   --> B_2  G_4 D_2'  

 **************************************************************************

 **************************************************************************

                    xk=(   0.00000,   0.00000,   0.55000  )

     Band symmetry, C_4v (4mm)  point group:

     e(  1 -  1) =     -5.34565  eV     1   --> B_2  G_4 D_2'  
     e(  2 -  2) =     -5.21003  eV     1   --> A_1  G_1 D_1   
     e(  3 -  4) =     -5.04037  eV     2   --> E    G_5 D_5   
     e(  5 -  5) =     -4.99714  eV     1   --> B_1  G_3 D_2   
     e(  6 -  6) =      1.83844  eV     1   --> A_1  G_1 D_1   
     e(  7 -  7) =     13.64024  eV     1   --> A_1  G_1 D_1   
     e(  8 -  9) =     15.63579  eV     2   --> E    G_5 D_5   
     e( 10 - 10) =     19.21887  eV     1   --> A_1  G_1 D_1   
     e( 11 - 11) =     19.46186  eV     1   --> B_2  G_4 D_2'  

 **************************************************************************

 **************************************************************************

                    xk=(   0.00000,   0.00000,   0.56000  )

     Band symmetry, C_4v (4mm)  point group:

     e(  1 -  1) =     -5.34855  eV     1   --> B_2  G_4 D_2'  
     e(  2 -  2) =     -5.21407  eV     1   --> A_1  G_1 D_1   
     e(  3 -  4) =     -5.03490  eV     2   --> E    G_5 D_5   
     e(  5 -  5) =     -4.99498  eV     1   --> B_1  G_3 D_2   
     e(  6 -  6) =      1.91144  eV     1   --> A_1  G_1 D_1   
     e(  7 -  7) =     13.49573  eV     1   --> A_1  G_1 D_1   
     e(  8 -  9) =     15.56669  eV     2   --> E    G_5 D_5   
     e( 10 - 10) =     19.12823  eV     1   --> A_1  G_1 D_1   
     e( 11 - 11) =     19.42624  eV     1   --> B_2  G_4 D_2'  

 **************************************************************************

 **************************************************************************

                    xk=(   0.00000,   0.00000,   0.57000  )

     Band symmetry, C_4v (4mm)  point group:

     e(  1 -  1) =     -5.35143  eV     1   --> B_2  G_4 D_2'  
     e(  2 -  2) =     -5.21824  eV     1   --> A_1  G_1 D_1   
     e(  3 -  4) =     -5.02949  eV     2   --> E    G_5 D_5   
     e(  5 -  5) =     -4.99283  eV     1   --> B_1  G_3 D_2   
     e(  6 -  6) =      1.98561  eV     1   --> A_1  G_1 D_1   
     e(  7 -  7) =     13.35086  eV     1   --> A_1  G_1 D_1   
     e(  8 -  9) =     15.49885  eV     2   --> E    G_5 D_5   
     e( 10 - 10) =     19.04045  eV     1   --> A_1  G_1 D_1   
     e( 11 - 11) =     19.39145  eV     1   --> B_2  G_4 D_2'  

 **************************************************************************

 **************************************************************************

                    xk=(   0.00000,   0.00000,   0.58000  )

     Band symmetry, C_4v (4mm)  point group:

     e(  1 -  1) =     -5.35429  eV     1   --> B_2  G_4 D_2'  
     e(  2 -  2) =     -5.22226  eV     1   --> A_1  G_1 D_1   
     e(  3 -  4) =     -5.02407  eV     2   --> E    G_5 D_5   
     e(  5 -  5) =     -4.99069  eV     1   --> B_1  G_3 D_2   
     e(  6 -  6) =      2.06091  eV     1   --> A_1  G_1 D_1   
     e(  7 -  7) =     13.20568  eV     1   --> A_1  G_1 D_1   
     e(  8 -  9) =     15.43229  eV     2   --> E    G_5 D_5   
     e( 10 - 10) =     18.95553  eV     1   --> A_1  G_1 D_1   
     e( 11 - 11) =     19.35749  eV     1   --> B_2  G_4 D_2'  

 **************************************************************************

 **************************************************************************

                    xk=(   0.00000,   0.00000,   0.59000  )

     Band symmetry, C_4v (4mm)  point group:

     e(  1 -  1) =     -5.35712  eV     1   --> B_2  G_4 D_2'  
     e(  2 -  2) =     -5.22627  eV     1   --> A_1  G_1 D_1   
     e(  3 -  4) =     -5.01868  eV     2   --> E    G_5 D_5   
     e(  5 -  5) =     -4.98857  eV     1   --> B_1  G_3 D_2   
     e(  6 -  6) =      2.13734  eV     1   --> A_1  G_1 D_1   
     e(  7 -  7) =     13.06027  eV     1   --> A_1  G_1 D_1   
     e(  8 -  9) =     15.36704  eV     2   --> E    G_5 D_5   
     e( 10 - 10) =     18.87339  eV     1   --> A_1  G_1 D_1   
     e( 11 - 11) =     19.32436  eV     1   --> B_2  G_4 D_2'  

 **************************************************************************

 **************************************************************************

                    xk=(   0.00000,   0.00000,   0.60000  )

     Band symmetry, C_4v (4mm)  point group:

     e(  1 -  1) =     -5.35993  eV     1   --> B_2  G_4 D_2'  
     e(  2 -  2) =     -5.23027  eV     1   --> A_1  G_1 D_1   
     e(  3 -  4) =     -5.01333  eV     2   --> E    G_5 D_5   
     e(  5 -  5) =     -4.98647  eV     1   --> B_1  G_3 D_2   
     e(  6 -  6) =      2.21487  eV     1   --> A_1  G_1 D_1   
     e(  7 -  7) =     12.91470  eV     1   --> A_1  G_1 D_1   
     e(  8 -  9) =     15.30312  eV     2   --> E    G_5 D_5   
     e( 10 - 10) =     18.79399  eV     1   --> A_1  G_1 D_1   
     e( 11 - 11) =     19.29206  eV     1   --> B_2  G_4 D_2'  

 **************************************************************************

 **************************************************************************

                    xk=(   0.00000,   0.00000,   0.61000  )

     Band symmetry, C_4v (4mm)  point group:

     e(  1 -  1) =     -5.36271  eV     1   --> B_2  G_4 D_2'  
     e(  2 -  2) =     -5.23424  eV     1   --> A_1  G_1 D_1   
     e(  3 -  4) =     -5.00802  eV     2   --> E    G_5 D_5   
     e(  5 -  5) =     -4.98439  eV     1   --> B_1  G_3 D_2   
     e(  6 -  6) =      2.29349  eV     1   --> A_1  G_1 D_1   
     e(  7 -  7) =     12.76904  eV     1   --> A_1  G_1 D_1   
     e(  8 -  9) =     15.24054  eV     2   --> E    G_5 D_5   
     e( 10 - 10) =     18.71729  eV     1   --> A_1  G_1 D_1   
     e( 11 - 11) =     19.26058  eV     1   --> B_2  G_4 D_2'  

 **************************************************************************

 **************************************************************************

                    xk=(   0.00000,   0.00000,   0.62000  )

     Band symmetry, C_4v (4mm)  point group:

     e(  1 -  1) =     -5.36546  eV     1   --> B_2  G_4 D_2'  
     e(  2 -  2) =     -5.23816  eV     1   --> A_1  G_1 D_1   
     e(  3 -  4) =     -5.00275  eV     2   --> E    G_5 D_5   
     e(  5 -  5) =     -4.98226  eV     1   --> B_1  G_3 D_2   
     e(  6 -  6) =      2.37316  eV     1   --> A_1  G_1 D_1   
     e(  7 -  7) =     12.62335  eV     1   --> A_1  G_1 D_1   
     e(  8 -  9) =     15.17932  eV     2   --> E    G_5 D_5   
     e( 10 - 10) =     18.64324  eV     1   --> A_1  G_1 D_1   
     e( 11 - 11) =     19.22993  eV     1   --> B_2  G_4 D_2'  

 **************************************************************************

 **************************************************************************

                    xk=(   0.00000,   0.00000,   0.63000  )

     Band symmetry, C_4v (4mm)  point group:

     e(  1 -  1) =     -5.36817  eV     1   --> B_2  G_4 D_2'  
     e(  2 -  2) =     -5.24208  eV     1   --> A_1  G_1 D_1   
     e(  3 -  4) =     -4.99754  eV     2   --> E    G_5 D_5   
     e(  5 -  5) =     -4.98022  eV     1   --> B_1  G_3 D_2   
     e(  6 -  6) =      2.45388  eV     1   --> A_1  G_1 D_1   
     e(  7 -  7) =     12.47773  eV     1   --> A_1  G_1 D_1   
     e(  8 -  9) =     15.11948  eV     2   --> E    G_5 D_5   
     e( 10 - 10) =     18.57179  eV     1   --> A_1  G_1 D_1   
     e( 11 - 11) =     19.20011  eV     1   --> B_2  G_4 D_2'  

 **************************************************************************

 **************************************************************************

                    xk=(   0.00000,   0.00000,   0.64000  )

     Band symmetry, C_4v (4mm)  point group:

     e(  1 -  1) =     -5.37083  eV     1   --> B_2  G_4 D_2'  
     e(  2 -  2) =     -5.24591  eV     1   --> A_1  G_1 D_1   
     e(  3 -  4) =     -4.99232  eV     2   --> E    G_5 D_5   
     e(  5 -  5) =     -4.97821  eV     1   --> B_1  G_3 D_2   
     e(  6 -  6) =      2.53560  eV     1   --> A_1  G_1 D_1   
     e(  7 -  7) =     12.33224  eV     1   --> A_1  G_1 D_1   
     e(  8 -  9) =     15.06103  eV     2   --> E    G_5 D_5   
     e( 10 - 10) =     18.50288  eV     1   --> A_1  G_1 D_1   
     e( 11 - 11) =     19.17111  eV     1   --> B_2  G_4 D_2'  

 **************************************************************************

 **************************************************************************

                    xk=(   0.00000,   0.00000,   0.65000  )

     Band symmetry, C_4v (4mm)  point group:

     e(  1 -  1) =     -5.37346  eV     1   --> B_2  G_4 D_2'  
     e(  2 -  2) =     -5.24975  eV     1   --> A_1  G_1 D_1   
     e(  3 -  4) =     -4.98723  eV     2   --> E    G_5 D_5   
     e(  5 -  5) =     -4.97623  eV     1   --> B_1  G_3 D_2   
     e(  6 -  6) =      2.61829  eV     1   --> A_1  G_1 D_1   
     e(  7 -  7) =     12.18696  eV     1   --> A_1  G_1 D_1   
     e(  8 -  9) =     15.00400  eV     2   --> E    G_5 D_5   
     e( 10 - 10) =     18.43648  eV     1   --> A_1  G_1 D_1   
     e( 11 - 11) =     19.14293  eV     1   --> B_2  G_4 D_2'  

 **************************************************************************

 **************************************************************************

                    xk=(   0.00000,   0.00000,   0.66000  )

     Band symmetry, C_4v (4mm)  point group:

     e(  1 -  1) =     -5.37605  eV     1   --> B_2  G_4 D_2'  
     e(  2 -  2) =     -5.25354  eV     1   --> A_1  G_1 D_1   
     e(  3 -  4) =     -4.98222  eV     2   --> E    G_5 D_5   
     e(  5 -  5) =     -4.97428  eV     1   --> B_1  G_3 D_2   
     e(  6 -  6) =      2.70193  eV     1   --> A_1  G_1 D_1   
     e(  7 -  7) =     12.04197  eV     1   --> A_1  G_1 D_1   
     e(  8 -  9) =     14.94840  eV     2   --> E    G_5 D_5   
     e( 10 - 10) =     18.37252  eV     1   --> A_1  G_1 D_1   
     e( 11 - 11) =     19.11558  eV     1   --> B_2  G_4 D_2'  

 **************************************************************************

 **************************************************************************

                    xk=(   0.00000,   0.00000,   0.67000  )

     Band symmetry, C_4v (4mm)  point group:

     e(  1 -  1) =     -5.37860  eV     1   --> B_2  G_4 D_2'  
     e(  2 -  2) =     -5.25727  eV     1   --> A_1  G_1 D_1   
     e(  3 -  4) =     -4.97729  eV     2   --> E    G_5 D_5   
     e(  5 -  5) =     -4.97237  eV     1   --> B_1  G_3 D_2   
     e(  6 -  6) =      2.78648  eV     1   --> A_1  G_1 D_1   
     e(  7 -  7) =     11.89736  eV     1   --> A_1  G_1 D_1   
     e(  8 -  9) =     14.89424  eV     2   --> E    G_5 D_5   
     e( 10 - 10) =     18.31096  eV     1   --> A_1  G_1 D_1   
     e( 11 - 11) =     19.08904  eV     1   --> B_2  G_4 D_2'  

 **************************************************************************

 **************************************************************************

                    xk=(   0.00000,   0.00000,   0.68000  )

     Band symmetry, C_4v (4mm)  point group:

     e(  1 -  1) =     -5.38110  eV     1   --> B_2  G_4 D_2'  
     e(  2 -  2) =     -5.26095  eV     1   --> A_1  G_1 D_1   
     e(  3 -  4) =     -4.97243  eV     2   --> E    G_5 D_5   
     e(  5 -  5) =     -4.97049  eV     1   --> B_1  G_3 D_2   
     e(  6 -  6) =      2.87190  eV     1   --> A_1  G_1 D_1   
     e(  7 -  7) =     11.75321  eV     1   --> A_1  G_1 D_1   
     e(  8 -  9) =     14.84154  eV     2   --> E    G_5 D_5   
     e( 10 - 10) =     18.25176  eV     1   --> A_1  G_1 D_1   
     e( 11 - 11) =     19.06333  eV     1   --> B_2  G_4 D_2'  

 **************************************************************************

 **************************************************************************

                    xk=(   0.00000,   0.00000,   0.69000  )

     Band symmetry, C_4v (4mm)  point group:

     e(  1 -  1) =     -5.38354  eV     1   --> B_2  G_4 D_2'  
     e(  2 -  2) =     -5.26459  eV     1   --> A_1  G_1 D_1   
     e(  3 -  3) =     -4.96866  eV     1   --> B_1  G_3 D_2   
     e(  4 -  5) =     -4.96770  eV     2   --> E    G_5 D_5   
     e(  6 -  6) =      2.95814  eV     1   --> A_1  G_1 D_1   
     e(  7 -  7) =     11.60961  eV     1   --> A_1  G_1 D_1   
     e(  8 -  9) =     14.79031  eV     2   --> E    G_5 D_5   
     e( 10 - 10) =     18.19486  eV     1   --> A_1  G_1 D_1   
     e( 11 - 11) =     19.03842  eV     1   --> B_2  G_4 D_2'  

 **************************************************************************

 **************************************************************************

                    xk=(   0.00000,   0.00000,   0.70000  )

     Band symmetry, C_4v (4mm)  point group:

     e(  1 -  1) =     -5.38594  eV     1   --> B_2  G_4 D_2'  
     e(  2 -  2) =     -5.26815  eV     1   --> A_1  G_1 D_1   
     e(  3 -  3) =     -4.96685  eV     1   --> B_1  G_3 D_2   
     e(  4 -  5) =     -4.96302  eV     2   --> E    G_5 D_5   
     e(  6 -  6) =      3.04517  eV     1   --> A_1  G_1 D_1   
     e(  7 -  7) =     11.46664  eV     1   --> A_1  G_1 D_1   
     e(  8 -  9) =     14.74057  eV     2   --> E    G_5 D_5   
     e( 10 - 10) =     18.14023  eV     1   --> A_1  G_1 D_1   
     e( 11 - 11) =     19.01434  eV     1   --> B_2  G_4 D_2'  

 **************************************************************************

 **************************************************************************

                    xk=(   0.00000,   0.00000,   0.71000  )

     Band symmetry, C_4v (4mm)  point group:

     e(  1 -  1) =     -5.38828  eV     1   --> B_2  G_4 D_2'  
     e(  2 -  2) =     -5.27164  eV     1   --> A_1  G_1 D_1   
     e(  3 -  3) =     -4.96513  eV     1   --> B_1  G_3 D_2   
     e(  4 -  5) =     -4.95852  eV     2   --> E    G_5 D_5   
     e(  6 -  6) =      3.13292  eV     1   --> A_1  G_1 D_1   
     e(  7 -  7) =     11.32441  eV     1   --> A_1  G_1 D_1   
     e(  8 -  9) =     14.69233  eV     2   --> E    G_5 D_5   
     e( 10 - 10) =     18.08781  eV     1   --> A_1  G_1 D_1   
     e( 11 - 11) =     18.99106  eV     1   --> B_2  G_4 D_2'  

 **************************************************************************

 **************************************************************************

                    xk=(   0.00000,   0.00000,   0.72000  )

     Band symmetry, C_4v (4mm)  point group:

     e(  1 -  1) =     -5.39057  eV     1   --> B_2  G_4 D_2'  
     e(  2 -  2) =     -5.27502  eV     1   --> A_1  G_1 D_1   
     e(  3 -  3) =     -4.96341  eV     1   --> B_1  G_3 D_2   
     e(  4 -  5) =     -4.95402  eV     2   --> E    G_5 D_5   
     e(  6 -  6) =      3.22133  eV     1   --> A_1  G_1 D_1   
     e(  7 -  7) =     11.18301  eV     1   --> A_1  G_1 D_1   
     e(  8 -  9) =     14.64561  eV     2   --> E    G_5 D_5   
     e( 10 - 10) =     18.03757  eV     1   --> A_1  G_1 D_1   
     e( 11 - 11) =     18.96860  eV     1   --> B_2  G_4 D_2'  

 **************************************************************************

 **************************************************************************

                    xk=(   0.00000,   0.00000,   0.73000  )

     Band symmetry, C_4v (4mm)  point group:

     e(  1 -  1) =     -5.39279  eV     1   --> B_2  G_4 D_2'  
     e(  2 -  2) =     -5.27835  eV     1   --> A_1  G_1 D_1   
     e(  3 -  3) =     -4.96173  eV     1   --> B_1  G_3 D_2   
     e(  4 -  5) =     -4.94965  eV     2   --> E    G_5 D_5   
     e(  6 -  6) =      3.31035  eV     1   --> A_1  G_1 D_1   
     e(  7 -  7) =     11.04254  eV     1   --> A_1  G_1 D_1   
     e(  8 -  9) =     14.60041  eV     2   --> E    G_5 D_5   
     e( 10 - 10) =     17.98946  eV     1   --> A_1  G_1 D_1   
     e( 11 - 11) =     18.94694  eV     1   --> B_2  G_4 D_2'  

 **************************************************************************

 **************************************************************************

                    xk=(   0.00000,   0.00000,   0.74000  )

     Band symmetry, C_4v (4mm)  point group:

     e(  1 -  1) =     -5.39495  eV     1   --> B_2  G_4 D_2'  
     e(  2 -  2) =     -5.28161  eV     1   --> A_1  G_1 D_1   
     e(  3 -  3) =     -4.96010  eV     1   --> B_1  G_3 D_2   
     e(  4 -  5) =     -4.94539  eV     2   --> E    G_5 D_5   
     e(  6 -  6) =      3.39990  eV     1   --> A_1  G_1 D_1   
     e(  7 -  7) =     10.90311  eV     1   --> A_1  G_1 D_1   
     e(  8 -  9) =     14.55676  eV     2   --> E    G_5 D_5   
     e( 10 - 10) =     17.94344  eV     1   --> A_1  G_1 D_1   
     e( 11 - 11) =     18.92609  eV     1   --> B_2  G_4 D_2'  

 **************************************************************************

 **************************************************************************

                    xk=(   0.00000,   0.00000,   0.75000  )

     Band symmetry, C_4v (4mm)  point group:

     e(  1 -  1) =     -5.39705  eV     1   --> B_2  G_4 D_2'  
     e(  2 -  2) =     -5.28478  eV     1   --> A_1  G_1 D_1   
     e(  3 -  3) =     -4.95851  eV     1   --> B_1  G_3 D_2   
     e(  4 -  5) =     -4.94125  eV     2   --> E    G_5 D_5   
     e(  6 -  6) =      3.48990  eV     1   --> A_1  G_1 D_1   
     e(  7 -  7) =     10.76484  eV     1   --> A_1  G_1 D_1   
     e(  8 -  9) =     14.51465  eV     2   --> E    G_5 D_5   
     e( 10 - 10) =     17.89948  eV     1   --> A_1  G_1 D_1   
     e( 11 - 11) =     18.90605  eV     1   --> B_2  G_4 D_2'  

 **************************************************************************

 **************************************************************************

                    xk=(   0.00000,   0.00000,   0.76000  )

     Band symmetry, C_4v (4mm)  point group:

     e(  1 -  1) =     -5.39909  eV     1   --> B_2  G_4 D_2'  
     e(  2 -  2) =     -5.28786  eV     1   --> A_1  G_1 D_1   
     e(  3 -  3) =     -4.95697  eV     1   --> B_1  G_3 D_2   
     e(  4 -  5) =     -4.93723  eV     2   --> E    G_5 D_5   
     e(  6 -  6) =      3.58026  eV     1   --> A_1  G_1 D_1   
     e(  7 -  7) =     10.62785  eV     1   --> A_1  G_1 D_1   
     e(  8 -  9) =     14.47410  eV     2   --> E    G_5 D_5   
     e( 10 - 10) =     17.85753  eV     1   --> A_1  G_1 D_1   
     e( 11 - 11) =     18.88681  eV     1   --> B_2  G_4 D_2'  

 **************************************************************************

 **************************************************************************

                    xk=(   0.00000,   0.00000,   0.77000  )

     Band symmetry, C_4v (4mm)  point group:

     e(  1 -  1) =     -5.40105  eV     1   --> B_2  G_4 D_2'  
     e(  2 -  2) =     -5.29085  eV     1   --> A_1  G_1 D_1   
     e(  3 -  3) =     -4.95549  eV     1   --> B_1  G_3 D_2   
     e(  4 -  5) =     -4.93333  eV     2   --> E    G_5 D_5   
     e(  6 -  6) =      3.67088  eV     1   --> A_1  G_1 D_1   
     e(  7 -  7) =     10.49227  eV     1   --> A_1  G_1 D_1   
     e(  8 -  9) =     14.43513  eV     2   --> E    G_5 D_5   
     e( 10 - 10) =     17.81757  eV     1   --> A_1  G_1 D_1   
     e( 11 - 11) =     18.86837  eV     1   --> B_2  G_4 D_2'  

 **************************************************************************

 **************************************************************************

                    xk=(   0.00000,   0.00000,   0.78000  )

     Band symmetry, C_4v (4mm)  point group:

     e(  1 -  1) =     -5.40289  eV     1   --> B_2  G_4 D_2'  
     e(  2 -  2) =     -5.29373  eV     1   --> A_1  G_1 D_1   
     e(  3 -  3) =     -4.95405  eV     1   --> B_1  G_3 D_2   
     e(  4 -  5) =     -4.92955  eV     2   --> E    G_5 D_5   
     e(  6 -  6) =      3.76165  eV     1   --> A_1  G_1 D_1   
     e(  7 -  7) =     10.35825  eV     1   --> A_1  G_1 D_1   
     e(  8 -  9) =     14.39773  eV     2   --> E    G_5 D_5   
     e( 10 - 10) =     17.77955  eV     1   --> A_1  G_1 D_1   
     e( 11 - 11) =     18.85073  eV     1   --> B_2  G_4 D_2'  

 **************************************************************************

 **************************************************************************

                    xk=(   0.00000,   0.00000,   0.79000  )

     Band symmetry, C_4v (4mm)  point group:

     e(  1 -  1) =     -5.40472  eV     1   --> B_2  G_4 D_2'  
     e(  2 -  2) =     -5.29652  eV     1   --> A_1  G_1 D_1   
     e(  3 -  3) =     -4.95267  eV     1   --> B_1  G_3 D_2   
     e(  4 -  5) =     -4.92592  eV     2   --> E    G_5 D_5   
     e(  6 -  6) =      3.85244  eV     1   --> A_1  G_1 D_1   
     e(  7 -  7) =     10.22594  eV     1   --> A_1  G_1 D_1   
     e(  8 -  9) =     14.36194  eV     2   --> E    G_5 D_5   
     e( 10 - 10) =     17.74344  eV     1   --> A_1  G_1 D_1   
     e( 11 - 11) =     18.83389  eV     1   --> B_2  G_4 D_2'  

 **************************************************************************

 **************************************************************************

                    xk=(   0.00000,   0.00000,   0.80000  )

     Band symmetry, C_4v (4mm)  point group:

     e(  1 -  1) =     -5.40645  eV     1   --> B_2  G_4 D_2'  
     e(  2 -  2) =     -5.29920  eV     1   --> A_1  G_1 D_1   
     e(  3 -  3) =     -4.95130  eV     1   --> B_1  G_3 D_2   
     e(  4 -  5) =     -4.92235  eV     2   --> E    G_5 D_5   
     e(  6 -  6) =      3.94310  eV     1   --> A_1  G_1 D_1   
     e(  7 -  7) =     10.09552  eV     1   --> A_1  G_1 D_1   
     e(  8 -  9) =     14.32774  eV     2   --> E    G_5 D_5   
     e( 10 - 10) =     17.70921  eV     1   --> A_1  G_1 D_1   
     e( 11 - 11) =     18.81784  eV     1   --> B_2  G_4 D_2'  

 **************************************************************************

 **************************************************************************

                    xk=(   0.00000,   0.00000,   0.81000  )

     Band symmetry, C_4v (4mm)  point group:

     e(  1 -  1) =     -5.40821  eV     1   --> B_2  G_4 D_2'  
     e(  2 -  2) =     -5.30192  eV     1   --> A_1  G_1 D_1   
     e(  3 -  3) =     -4.95010  eV     1   --> B_1  G_3 D_2   
     e(  4 -  5) =     -4.91901  eV     2   --> E    G_5 D_5   
     e(  6 -  6) =      4.03346  eV     1   --> A_1  G_1 D_1   
     e(  7 -  7) =      9.96718  eV     1   --> A_1  G_1 D_1   
     e(  8 -  9) =     14.29515  eV     2   --> E    G_5 D_5   
     e( 10 - 10) =     17.67684  eV     1   --> A_1  G_1 D_1   
     e( 11 - 11) =     18.80258  eV     1   --> B_2  G_4 D_2'  

 **************************************************************************

 **************************************************************************

                    xk=(   0.00000,   0.00000,   0.82000  )

     Band symmetry, C_4v (4mm)  point group:

     e(  1 -  1) =     -5.40982  eV     1   --> B_2  G_4 D_2'  
     e(  2 -  2) =     -5.30438  eV     1   --> A_1  G_1 D_1   
     e(  3 -  3) =     -4.94888  eV     1   --> B_1  G_3 D_2   
     e(  4 -  5) =     -4.91581  eV     2   --> E    G_5 D_5   
     e(  6 -  6) =      4.12334  eV     1   --> A_1  G_1 D_1   
     e(  7 -  7) =      9.84112  eV     1   --> A_1  G_1 D_1   
     e(  8 -  9) =     14.26418  eV     2   --> E    G_5 D_5   
     e( 10 - 10) =     17.64629  eV     1   --> A_1  G_1 D_1   
     e( 11 - 11) =     18.78812  eV     1   --> B_2  G_4 D_2'  

 **************************************************************************

 **************************************************************************

                    xk=(   0.00000,   0.00000,   0.83000  )

     Band symmetry, C_4v (4mm)  point group:

     e(  1 -  1) =     -5.41134  eV     1   --> B_2  G_4 D_2'  
     e(  2 -  2) =     -5.30673  eV     1   --> A_1  G_1 D_1   
     e(  3 -  3) =     -4.94773  eV     1   --> B_1  G_3 D_2   
     e(  4 -  5) =     -4.91276  eV     2   --> E    G_5 D_5   
     e(  6 -  6) =      4.21254  eV     1   --> A_1  G_1 D_1   
     e(  7 -  7) =      9.71759  eV     1   --> A_1  G_1 D_1   
     e(  8 -  9) =     14.23484  eV     2   --> E    G_5 D_5   
     e( 10 - 10) =     17.61754  eV     1   --> A_1  G_1 D_1   
     e( 11 - 11) =     18.77445  eV     1   --> B_2  G_4 D_2'  

 **************************************************************************

 **************************************************************************

                    xk=(   0.00000,   0.00000,   0.84000  )

     Band symmetry, C_4v (4mm)  point group:

     e(  1 -  1) =     -5.41279  eV     1   --> B_2  G_4 D_2'  
     e(  2 -  2) =     -5.30897  eV     1   --> A_1  G_1 D_1   
     e(  3 -  3) =     -4.94663  eV     1   --> B_1  G_3 D_2   
     e(  4 -  5) =     -4.90986  eV     2   --> E    G_5 D_5   
     e(  6 -  6) =      4.30080  eV     1   --> A_1  G_1 D_1   
     e(  7 -  7) =      9.59685  eV     1   --> A_1  G_1 D_1   
     e(  8 -  9) =     14.20714  eV     2   --> E    G_5 D_5   
     e( 10 - 10) =     17.59057  eV     1   --> A_1  G_1 D_1   
     e( 11 - 11) =     18.76158  eV     1   --> B_2  G_4 D_2'  

 **************************************************************************

 **************************************************************************

                    xk=(   0.00000,   0.00000,   0.85000  )

     Band symmetry, C_4v (4mm)  point group:

     e(  1 -  1) =     -5.41414  eV     1   --> B_2  G_4 D_2'  
     e(  2 -  2) =     -5.31108  eV     1   --> A_1  G_1 D_1   
     e(  3 -  3) =     -4.94553  eV     1   --> B_1  G_3 D_2   
     e(  4 -  5) =     -4.90706  eV     2   --> E    G_5 D_5   
     e(  6 -  6) =      4.38784  eV     1   --> A_1  G_1 D_1   
     e(  7 -  7) =      9.47919  eV     1   --> A_1  G_1 D_1   
     e(  8 -  9) =     14.18108  eV     2   --> E    G_5 D_5   
     e( 10 - 10) =     17.56534  eV     1   --> A_1  G_1 D_1   
     e( 11 - 11) =     18.74949  eV     1   --> B_2  G_4 D_2'  

 **************************************************************************

 **************************************************************************

                    xk=(   0.00000,   0.00000,   0.86000  )

     Band symmetry, C_4v (4mm)  point group:

     e(  1 -  1) =     -5.41543  eV     1   --> B_2  G_4 D_2'  
     e(  2 -  2) =     -5.31307  eV     1   --> A_1  G_1 D_1   
     e(  3 -  3) =     -4.94456  eV     1   --> B_1  G_3 D_2   
     e(  4 -  5) =     -4.90448  eV     2   --> E    G_5 D_5   
     e(  6 -  6) =      4.47336  eV     1   --> A_1  G_1 D_1   
     e(  7 -  7) =      9.36496  eV     1   --> A_1  G_1 D_1   
     e(  8 -  9) =     14.15666  eV     2   --> E    G_5 D_5   
     e( 10 - 10) =     17.54185  eV     1   --> A_1  G_1 D_1   
     e( 11 - 11) =     18.73818  eV     1   --> B_2  G_4 D_2'  

 **************************************************************************

 **************************************************************************

                    xk=(   0.00000,   0.00000,   0.87000  )

     Band symmetry, C_4v (4mm)  point group:

     e(  1 -  1) =     -5.41663  eV     1   --> B_2  G_4 D_2'  
     e(  2 -  2) =     -5.31476  eV     1   --> A_1  G_1 D_1   
     e(  3 -  3) =     -4.94364  eV     1   --> B_1  G_3 D_2   
     e(  4 -  5) =     -4.90205  eV     2   --> E    G_5 D_5   
     e(  6 -  6) =      4.55699  eV     1   --> A_1  G_1 D_1   
     e(  7 -  7) =      9.25452  eV     1   --> A_1  G_1 D_1   
     e(  8 -  9) =     14.13391  eV     2   --> E    G_5 D_5   
     e( 10 - 10) =     17.52007  eV     1   --> A_1  G_1 D_1   
     e( 11 - 11) =     18.72766  eV     1   --> B_2  G_4 D_2'  

 **************************************************************************

 **************************************************************************

                    xk=(   0.00000,   0.00000,   0.88000  )

     Band symmetry, C_4v (4mm)  point group:

     e(  1 -  1) =     -5.41779  eV     1   --> B_2  G_4 D_2'  
     e(  2 -  2) =     -5.31649  eV     1   --> A_1  G_1 D_1   
     e(  3 -  3) =     -4.94284  eV     1   --> B_1  G_3 D_2   
     e(  4 -  5) =     -4.89987  eV     2   --> E    G_5 D_5   
     e(  6 -  6) =      4.63831  eV     1   --> A_1  G_1 D_1   
     e(  7 -  7) =      9.14831  eV     1   --> A_1  G_1 D_1   
     e(  8 -  9) =     14.11281  eV     2   --> E    G_5 D_5   
     e( 10 - 10) =     17.49997  eV     1   --> A_1  G_1 D_1   
     e( 11 - 11) =     18.71793  eV     1   --> B_2  G_4 D_2'  

 **************************************************************************

 **************************************************************************

                    xk=(   0.00000,   0.00000,   0.89000  )

     Band symmetry, C_4v (4mm)  point group:

     e(  1 -  1) =     -5.41882  eV     1   --> B_2  G_4 D_2'  
     e(  2 -  2) =     -5.31810  eV     1   --> A_1  G_1 D_1   
     e(  3 -  3) =     -4.94206  eV     1   --> B_1  G_3 D_2   
     e(  4 -  5) =     -4.89779  eV     2   --> E    G_5 D_5   
     e(  6 -  6) =      4.71686  eV     1   --> A_1  G_1 D_1   
     e(  7 -  7) =      9.04681  eV     1   --> A_1  G_1 D_1   
     e(  8 -  9) =     14.09338  eV     2   --> E    G_5 D_5   
     e( 10 - 10) =     17.48154  eV     1   --> A_1  G_1 D_1   
     e( 11 - 11) =     18.70897  eV     1   --> B_2  G_4 D_2'  

 **************************************************************************

 **************************************************************************

                    xk=(   0.00000,   0.00000,   0.90000  )

     Band symmetry, C_4v (4mm)  point group:

     e(  1 -  1) =     -5.41977  eV     1   --> B_2  G_4 D_2'  
[...]
     e(  3 -  3) =     -5.00826  eV     1   --> A'             
     e(  4 -  4) =     -4.96470  eV     1   --> A'             
     e(  5 -  5) =     -4.89448  eV     1   --> A''            
     e(  6 -  6) =      5.01710  eV     1   --> A'             
     e(  7 -  7) =      9.30059  eV     1   --> A'             
     e(  8 -  8) =     12.39425  eV     1   --> A''            
     e(  9 -  9) =     12.88094  eV     1   --> A'             
     e( 10 - 10) =     20.03126  eV     1   --> A'             
     e( 11 - 11) =     20.99648  eV     1   --> A''            

 **************************************************************************

 **************************************************************************

                    xk=(  -0.25500,   0.00000,   0.91500  )

     Band symmetry, C_s (m)     point group:

     e(  1 -  1) =     -5.34753  eV     1   --> A''            
     e(  2 -  2) =     -5.27818  eV     1   --> A'             
     e(  3 -  3) =     -4.99887  eV     1   --> A'             
     e(  4 -  4) =     -4.95970  eV     1   --> A'             
     e(  5 -  5) =     -4.89358  eV     1   --> A''            
     e(  6 -  6) =      5.02988  eV     1   --> A'             
     e(  7 -  7) =      9.22622  eV     1   --> A'             
     e(  8 -  8) =     12.51906  eV     1   --> A''            
     e(  9 -  9) =     12.93364  eV     1   --> A'             
     e( 10 - 10) =     19.80645  eV     1   --> A'             
     e( 11 - 11) =     20.79131  eV     1   --> A''            

 **************************************************************************

 **************************************************************************

                    xk=(  -0.24000,   0.00000,   0.92000  )

     Band symmetry, C_s (m)     point group:

     e(  1 -  1) =     -5.35592  eV     1   --> A''            
     e(  2 -  2) =     -5.28305  eV     1   --> A'             
     e(  3 -  3) =     -4.99004  eV     1   --> A'             
     e(  4 -  4) =     -4.95464  eV     1   --> A'             
     e(  5 -  5) =     -4.89278  eV     1   --> A''            
     e(  6 -  6) =      5.04334  eV     1   --> A'             
     e(  7 -  7) =      9.15194  eV     1   --> A'             
     e(  8 -  8) =     12.64356  eV     1   --> A''            
     e(  9 -  9) =     12.99310  eV     1   --> A'             
     e( 10 - 10) =     19.58607  eV     1   --> A'             
     e( 11 - 11) =     20.59118  eV     1   --> A''            

 **************************************************************************

 **************************************************************************

                    xk=(  -0.22500,   0.00000,   0.92500  )

     Band symmetry, C_s (m)     point group:

     e(  1 -  1) =     -5.36393  eV     1   --> A''            
     e(  2 -  2) =     -5.28775  eV     1   --> A'             
     e(  3 -  3) =     -4.98202  eV     1   --> A'             
     e(  4 -  4) =     -4.94932  eV     1   --> A'             
     e(  5 -  5) =     -4.89207  eV     1   --> A''            
     e(  6 -  6) =      5.05735  eV     1   --> A'             
     e(  7 -  7) =      9.07844  eV     1   --> A'             
     e(  8 -  8) =     12.76730  eV     1   --> A''            
     e(  9 -  9) =     13.05848  eV     1   --> A'             
     e( 10 - 10) =     19.37077  eV     1   --> A'             
     e( 11 - 11) =     20.39652  eV     1   --> A''            

 **************************************************************************

 **************************************************************************

                    xk=(  -0.21000,  -0.00000,   0.93000  )

     Band symmetry, C_s (m)     point group:

     e(  1 -  1) =     -5.37148  eV     1   --> A''            
     e(  2 -  2) =     -5.29234  eV     1   --> A'             
     e(  3 -  3) =     -4.97482  eV     1   --> A'             
     e(  4 -  4) =     -4.94371  eV     1   --> A'             
     e(  5 -  5) =     -4.89137  eV     1   --> A''            
     e(  6 -  6) =      5.07177  eV     1   --> A'             
     e(  7 -  7) =      9.00635  eV     1   --> A'             
     e(  8 -  8) =     12.88978  eV     1   --> A''            
     e(  9 -  9) =     13.12893  eV     1   --> A'             
     e( 10 - 10) =     19.16116  eV     1   --> A'             
     e( 11 - 11) =     20.20781  eV     1   --> A''            

 **************************************************************************

 **************************************************************************

                    xk=(  -0.19500,   0.00000,   0.93500  )

     Band symmetry, C_s (m)     point group:

     e(  1 -  1) =     -5.37855  eV     1   --> A''            
     e(  2 -  2) =     -5.29671  eV     1   --> A'             
     e(  3 -  3) =     -4.96853  eV     1   --> A'             
     e(  4 -  4) =     -4.93786  eV     1   --> A'             
     e(  5 -  5) =     -4.89072  eV     1   --> A''            
     e(  6 -  6) =      5.08645  eV     1   --> A'             
     e(  7 -  7) =      8.93628  eV     1   --> A'             
     e(  8 -  8) =     13.01042  eV     1   --> A''            
     e(  9 -  9) =     13.20358  eV     1   --> A'             
     e( 10 - 10) =     18.95792  eV     1   --> A'             
     e( 11 - 11) =     20.02560  eV     1   --> A''            

 **************************************************************************

 **************************************************************************

                    xk=(  -0.18000,  -0.00000,   0.94000  )

     Band symmetry, C_s (m)     point group:

     e(  1 -  1) =     -5.38516  eV     1   --> A''            
     e(  2 -  2) =     -5.30087  eV     1   --> A'             
     e(  3 -  3) =     -4.96310  eV     1   --> A'             
     e(  4 -  4) =     -4.93181  eV     1   --> A'             
     e(  5 -  5) =     -4.89013  eV     1   --> A''            
     e(  6 -  6) =      5.10121  eV     1   --> A'             
     e(  7 -  7) =      8.86882  eV     1   --> A'             
     e(  8 -  8) =     13.12856  eV     1   --> A''            
     e(  9 -  9) =     13.28149  eV     1   --> A'             
     e( 10 - 10) =     18.76175  eV     1   --> A'             
     e( 11 - 11) =     19.85053  eV     1   --> A''            

 **************************************************************************

 **************************************************************************

                    xk=(  -0.16500,   0.00000,   0.94500  )

     Band symmetry, C_s (m)     point group:

     e(  1 -  1) =     -5.39126  eV     1   --> A''            
     e(  2 -  2) =     -5.30479  eV     1   --> A'             
     e(  3 -  3) =     -4.95844  eV     1   --> A'             
     e(  4 -  4) =     -4.92576  eV     1   --> A'             
     e(  5 -  5) =     -4.88964  eV     1   --> A''            
     e(  6 -  6) =      5.11588  eV     1   --> A'             
     e(  7 -  7) =      8.80451  eV     1   --> A'             
     e(  8 -  8) =     13.24347  eV     1   --> A''            
     e(  9 -  9) =     13.36166  eV     1   --> A'             
     e( 10 - 10) =     18.57346  eV     1   --> A'             
     e( 11 - 11) =     19.68332  eV     1   --> A''            

 **************************************************************************

 **************************************************************************

                    xk=(  -0.15000,  -0.00000,   0.95000  )

     Band symmetry, C_s (m)     point group:

     e(  1 -  1) =     -5.39691  eV     1   --> A''            
     e(  2 -  2) =     -5.30843  eV     1   --> A'             
     e(  3 -  3) =     -4.95444  eV     1   --> A'             
     e(  4 -  4) =     -4.91980  eV     1   --> A'             
     e(  5 -  5) =     -4.88916  eV     1   --> A''            
     e(  6 -  6) =      5.13026  eV     1   --> A'             
     e(  7 -  7) =      8.74386  eV     1   --> A'             
     e(  8 -  8) =     13.35430  eV     1   --> A''            
     e(  9 -  9) =     13.44301  eV     1   --> A'             
     e( 10 - 10) =     18.39395  eV     1   --> A'             
     e( 11 - 11) =     19.52480  eV     1   --> A''            

 **************************************************************************

 **************************************************************************

                    xk=(  -0.13500,   0.00000,   0.95500  )

     Band symmetry, C_s (m)     point group:

     e(  1 -  1) =     -5.40203  eV     1   --> A''            
     e(  2 -  2) =     -5.31175  eV     1   --> A'             
     e(  3 -  3) =     -4.95099  eV     1   --> A'             
     e(  4 -  4) =     -4.91397  eV     1   --> A'             
     e(  5 -  5) =     -4.88869  eV     1   --> A''            
     e(  6 -  6) =      5.14414  eV     1   --> A'             
     e(  7 -  7) =      8.68735  eV     1   --> A'             
     e(  8 -  8) =     13.46010  eV     1   --> A''            
     e(  9 -  9) =     13.52434  eV     1   --> A'             
     e( 10 - 10) =     18.22426  eV     1   --> A'             
     e( 11 - 11) =     19.37591  eV     1   --> A''            

 **************************************************************************

 **************************************************************************

                    xk=(  -0.12000,  -0.00000,   0.96000  )

     Band symmetry, C_s (m)     point group:

     e(  1 -  1) =     -5.40663  eV     1   --> A''            
     e(  2 -  2) =     -5.31479  eV     1   --> A'             
     e(  3 -  3) =     -4.94806  eV     1   --> A'             
     e(  4 -  4) =     -4.90858  eV     1   --> A'             
     e(  5 -  5) =     -4.88827  eV     1   --> A''            
     e(  6 -  6) =      5.15732  eV     1   --> A'             
     e(  7 -  7) =      8.63544  eV     1   --> A'             
     e(  8 -  8) =     13.55979  eV     1   --> A''            
     e(  9 -  9) =     13.60430  eV     1   --> A'             
     e( 10 - 10) =     18.06559  eV     1   --> A'             
     e( 11 - 11) =     19.23769  eV     1   --> A''            

 **************************************************************************

 **************************************************************************

                    xk=(  -0.10500,  -0.00000,   0.96500  )

     Band symmetry, C_s (m)     point group:

     e(  1 -  1) =     -5.41071  eV     1   --> A''            
     e(  2 -  2) =     -5.31752  eV     1   --> A'             
     e(  3 -  3) =     -4.94557  eV     1   --> A'             
     e(  4 -  4) =     -4.90374  eV     1   --> A'             
     e(  5 -  5) =     -4.88793  eV     1   --> A''            
     e(  6 -  6) =      5.16959  eV     1   --> A'             
     e(  7 -  7) =      8.58854  eV     1   --> A'             
     e(  8 -  8) =     13.65223  eV     1   --> A''            
     e(  9 -  9) =     13.68140  eV     1   --> A'             
     e( 10 - 10) =     17.91932  eV     1   --> A'             
     e( 11 - 11) =     19.11130  eV     1   --> A''            

 **************************************************************************

 **************************************************************************

                    xk=(  -0.09000,  -0.00000,   0.97000  )

     Band symmetry, C_s (m)     point group:

     e(  1 -  1) =     -5.41429  eV     1   --> A''            
     e(  2 -  2) =     -5.31992  eV     1   --> A'             
     e(  3 -  3) =     -4.94346  eV     1   --> A'             
     e(  4 -  4) =     -4.89937  eV     1   --> A'             
     e(  5 -  5) =     -4.88767  eV     1   --> A''            
     e(  6 -  6) =      5.18073  eV     1   --> A'             
     e(  7 -  7) =      8.54705  eV     1   --> A'             
     e(  8 -  8) =     13.73614  eV     1   --> A''            
     e(  9 -  9) =     13.75396  eV     1   --> A'             
     e( 10 - 10) =     17.78700  eV     1   --> A'             
     e( 11 - 11) =     18.99798  eV     1   --> A''            

 **************************************************************************

 **************************************************************************

                    xk=(  -0.07500,  -0.00000,   0.97500  )

     Band symmetry, C_s (m)     point group:

     e(  1 -  1) =     -5.41734  eV     1   --> A''            
     e(  2 -  2) =     -5.32197  eV     1   --> A'             
     e(  3 -  3) =     -4.94171  eV     1   --> A'             
     e(  4 -  4) =     -4.89562  eV     1   --> A'             
     e(  5 -  5) =     -4.88743  eV     1   --> A''            
     e(  6 -  6) =      5.19056  eV     1   --> A'             
     e(  7 -  7) =      8.51130  eV     1   --> A'             
     e(  8 -  8) =     13.81023  eV     1   --> A''            
     e(  9 -  9) =     13.82016  eV     1   --> A'             
     e( 10 - 10) =     17.67038  eV     1   --> A'             
     e( 11 - 11) =     18.89903  eV     1   --> A''            

 **************************************************************************

 **************************************************************************

                    xk=(  -0.06000,  -0.00000,   0.98000  )

     Band symmetry, C_s (m)     point group:

     e(  1 -  1) =     -5.41985  eV     1   --> A''            
     e(  2 -  2) =     -5.32367  eV     1   --> A'             
     e(  3 -  3) =     -4.94037  eV     1   --> A'             
     e(  4 -  4) =     -4.89250  eV     1   --> A'             
     e(  5 -  5) =     -4.88723  eV     1   --> A''            
     e(  6 -  6) =      5.19887  eV     1   --> A'             
     e(  7 -  7) =      8.48161  eV     1   --> A'             
     e(  8 -  8) =     13.87316  eV     1   --> A''            
     e(  9 -  9) =     13.87807  eV     1   --> A'             
     e( 10 - 10) =     17.57132  eV     1   --> A'             
     e( 11 - 11) =     18.81576  eV     1   --> A''            

 **************************************************************************

 **************************************************************************

                    xk=(  -0.04500,  -0.00000,   0.98500  )

     Band symmetry, C_s (m)     point group:

     e(  1 -  1) =     -5.42179  eV     1   --> A''            
     e(  2 -  2) =     -5.32500  eV     1   --> A'             
     e(  3 -  3) =     -4.93928  eV     1   --> A'             
     e(  4 -  4) =     -4.89005  eV     1   --> A'             
     e(  5 -  5) =     -4.88708  eV     1   --> A''            
     e(  6 -  6) =      5.20552  eV     1   --> A'             
     e(  7 -  7) =      8.45824  eV     1   --> A'             
     e(  8 -  8) =     13.92369  eV     1   --> A''            
     e(  9 -  9) =     13.92574  eV     1   --> A'             
     e( 10 - 10) =     17.49170  eV     1   --> A'             
     e( 11 - 11) =     18.74943  eV     1   --> A''            

 **************************************************************************

 **************************************************************************

                    xk=(  -0.03000,   0.00000,   0.99000  )

     Band symmetry, C_s (m)     point group:

     e(  1 -  1) =     -5.42321  eV     1   --> A''            
     e(  2 -  2) =     -5.32598  eV     1   --> A'             
     e(  3 -  3) =     -4.93855  eV     1   --> A'             
     e(  4 -  4) =     -4.88831  eV     1   --> A'             
     e(  5 -  5) =     -4.88697  eV     1   --> A''            
     e(  6 -  6) =      5.21038  eV     1   --> A'             
     e(  7 -  7) =      8.44139  eV     1   --> A'             
     e(  8 -  8) =     13.96068  eV     1   --> A''            
     e(  9 -  9) =     13.96135  eV     1   --> A'             
     e( 10 - 10) =     17.43330  eV     1   --> A'             
     e( 11 - 11) =     18.70115  eV     1   --> A''            

 **************************************************************************

 **************************************************************************

                    xk=(  -0.01500,   0.00000,   0.99500  )

     Band symmetry, C_s (m)     point group:

     e(  1 -  1) =     -5.42405  eV     1   --> A''            
     e(  2 -  2) =     -5.32655  eV     1   --> A'             
     e(  3 -  3) =     -4.93809  eV     1   --> A'             
     e(  4 -  4) =     -4.88724  eV     1   --> A'             
     e(  5 -  5) =     -4.88690  eV     1   --> A''            
     e(  6 -  6) =      5.21333  eV     1   --> A'             
     e(  7 -  7) =      8.43122  eV     1   --> A'             
     e(  8 -  8) =     13.98326  eV     1   --> A''            
     e(  9 -  9) =     13.98339  eV     1   --> A'             
     e( 10 - 10) =     17.39760  eV     1   --> A'             
     e( 11 - 11) =     18.67180  eV     1   --> A''            

 **************************************************************************

 **************************************************************************

                    xk=(   0.00000,   0.00000,   1.00000  )

     point group D_4h(4/mmm)
     there are 10 classes
     the character table:

       E     2C4   C2    2C2'  2C2'' i     2S4   s_h   2s_v  2s_d 
A_1g   1.00  1.00  1.00  1.00  1.00  1.00  1.00  1.00  1.00  1.00
A_2g   1.00  1.00  1.00 -1.00 -1.00  1.00  1.00  1.00 -1.00 -1.00
B_1g   1.00 -1.00  1.00  1.00 -1.00  1.00 -1.00  1.00  1.00 -1.00
B_2g   1.00 -1.00  1.00 -1.00  1.00  1.00 -1.00  1.00 -1.00  1.00
E_g    2.00  0.00 -2.00  0.00  0.00  2.00  0.00 -2.00  0.00  0.00
A_1u   1.00  1.00  1.00  1.00  1.00 -1.00 -1.00 -1.00 -1.00 -1.00
A_2u   1.00  1.00  1.00 -1.00 -1.00 -1.00 -1.00 -1.00  1.00  1.00
B_1u   1.00 -1.00  1.00  1.00 -1.00 -1.00  1.00 -1.00 -1.00  1.00
B_2u   1.00 -1.00  1.00 -1.00  1.00 -1.00  1.00 -1.00  1.00 -1.00
E_u    2.00  0.00 -2.00  0.00  0.00 -2.00  0.00  2.00  0.00  0.00

     the symmetry operations in each class and the name of the first element:

     E        1
                                                                 
     2C4      7    8
                                                                 
     C2       2
                                                                 
     2C2'     3    4
                                                                 
     2C2''    5    6
                                                                 
     i        9
                                                                 
     2S4     15   16
                                                                 
     s_h     10
                                                                 
     2s_v    11   12
                                                                 
     2s_d    13   14
                                                                 

     Band symmetry, D_4h(4/mmm) point group:

     e(  1 -  1) =     -5.42432  eV     1   --> B_2g X_3  M_3  
     e(  2 -  2) =     -5.32674  eV     1   --> A_1g X_1  M_1  
     e(  3 -  3) =     -4.93794  eV     1   --> B_1g X_2  M_2  
     e(  4 -  5) =     -4.88688  eV     2   --> E_g  X_5  M_5  
     e(  6 -  6) =      5.21432  eV     1   --> A_1g X_1  M_1  
     e(  7 -  7) =      8.42782  eV     1   --> A_2u X_4' M_4' 
     e(  8 -  9) =     13.99085  eV     2   --> E_u  X_5' M_5' 
     e( 10 - 10) =     17.38558  eV     1   --> A_1g X_1  M_1  
     e( 11 - 11) =     18.66195  eV     1   --> B_2g X_3  M_3  

 **************************************************************************

     BANDS        :   2m27.37s CPU   2m34.54s WALL


   This run was terminated on:  17:13:22   1Jul2021            

=------------------------------------------------------------------------------=
   JOB DONE.
=------------------------------------------------------------------------------=
