
     Program PWSCF v.6.4.1 starts on  1Jul2021 at 14:56:21 

     This program is part of the open-source Quantum ESPRESSO suite
     for quantum simulation of materials; please cite
         "P. Giannozzi et al., J. Phys.:Condens. Matter 21 395502 (2009);
         "P. Giannozzi et al., J. Phys.:Condens. Matter 29 465901 (2017);
          URL http://www.quantum-espresso.org", 
     in publications or presentations arising from this work. More details at
     http://www.quantum-espresso.org/quote

     Parallel version (MPI), running on     1 processors

     MPI processes distributed on     1 nodes
     Waiting for input...
     Reading input from standard input

     Current dimensions of program PWSCF are:
     Max number of different atomic species (ntypx) = 10
     Max number of k-points (npk) =  40000
     Max angular momentum in pseudopotentials (lmaxx) =  3
               file Pb.pbe-dn-rrkjus_psl.1.0.0.UPF: wavefunction(s)  6S 5D renormalized

     Subspace diagonalization in iterative solution of the eigenvalue problem:
     a serial algorithm will be used


     G-vector sticks info
     --------------------
     sticks:   dense  smooth     PW     G-vecs:    dense   smooth      PW
     Sum        1639     823    253                43895    15593    2685


     Title: 
     Lead                                                                       


     bravais-lattice index     =            2
     lattice parameter (alat)  =       9.2226  a.u.
     unit-cell volume          =     196.1075 (a.u.)^3
     number of atoms/cell      =            1
     number of atomic types    =            1
     number of electrons       =        14.00
     number of Kohn-Sham states=           11
     kinetic-energy cutoff     =      70.0000  Ry
     charge density cutoff     =     560.0000  Ry
     convergence threshold     =      1.0E-09
     mixing beta               =       0.7000
     number of iterations used =            8  plain     mixing
     Exchange-correlation      = PBE ( 1  4  3  4 0 0)

     celldm(1)=   9.222558  celldm(2)=   0.000000  celldm(3)=   0.000000
     celldm(4)=   0.000000  celldm(5)=   0.000000  celldm(6)=   0.000000

     crystal axes: (cart. coord. in units of alat)
               a(1) = (  -0.500000   0.000000   0.500000 )  
               a(2) = (   0.000000   0.500000   0.500000 )  
               a(3) = (  -0.500000   0.500000   0.000000 )  

     reciprocal axes: (cart. coord. in units 2 pi/alat)
               b(1) = ( -1.000000 -1.000000  1.000000 )  
               b(2) = (  1.000000  1.000000  1.000000 )  
               b(3) = ( -1.000000  1.000000 -1.000000 )  


     PseudoPot. # 1 for Pb read from file:
     /home/elena/qe-6.7/pseudo/Pb.pbe-dn-rrkjus_psl.1.0.0.UPF
     MD5 check sum: 1cf8f5e18580e6a90a35f98a53d336de
     Pseudo is Ultrasoft + core correction, Zval = 14.0
     Generated using "atomic" code by A. Dal Corso v.6.3
     Using radial grid of 1281 points,  6 beta functions with: 
                l(1) =   0
                l(2) =   0
                l(3) =   1
                l(4) =   1
                l(5) =   2
                l(6) =   2
     Q(r) pseudized with 0 coefficients 


     atomic species   valence    mass     pseudopotential
        Pb            14.00   207.20000     Pb( 1.00)

     48 Sym. Ops., with inversion, found



   Cartesian axes

     site n.     atom                  positions (alat units)
         1           Pb  tau(   1) = (   0.0000000   0.0000000   0.0000000  )

     number of k points=    47  Methfessel-Paxton smearing, width (Ry)=  0.0200
                       cart. coord. in units 2pi/alat
        k(    1) = (   0.0000000   0.0000000   0.0000000), wk =   0.0020000
        k(    2) = (  -0.1000000   0.1000000  -0.1000000), wk =   0.0160000
        k(    3) = (  -0.2000000   0.2000000  -0.2000000), wk =   0.0160000
        k(    4) = (  -0.3000000   0.3000000  -0.3000000), wk =   0.0160000
        k(    5) = (  -0.4000000   0.4000000  -0.4000000), wk =   0.0160000
        k(    6) = (   0.5000000  -0.5000000   0.5000000), wk =   0.0080000
        k(    7) = (   0.0000000   0.2000000   0.0000000), wk =   0.0120000
        k(    8) = (  -0.1000000   0.3000000  -0.1000000), wk =   0.0480000
        k(    9) = (  -0.2000000   0.4000000  -0.2000000), wk =   0.0480000
        k(   10) = (  -0.3000000   0.5000000  -0.3000000), wk =   0.0480000
        k(   11) = (   0.6000000  -0.4000000   0.6000000), wk =   0.0480000
        k(   12) = (   0.5000000  -0.3000000   0.5000000), wk =   0.0480000
        k(   13) = (   0.4000000  -0.2000000   0.4000000), wk =   0.0480000
        k(   14) = (   0.3000000  -0.1000000   0.3000000), wk =   0.0480000
        k(   15) = (   0.2000000   0.0000000   0.2000000), wk =   0.0240000
        k(   16) = (   0.0000000   0.4000000   0.0000000), wk =   0.0120000
        k(   17) = (  -0.1000000   0.5000000  -0.1000000), wk =   0.0480000
        k(   18) = (  -0.2000000   0.6000000  -0.2000000), wk =   0.0480000
        k(   19) = (   0.7000000  -0.3000000   0.7000000), wk =   0.0480000
        k(   20) = (   0.6000000  -0.2000000   0.6000000), wk =   0.0480000
        k(   21) = (   0.5000000  -0.1000000   0.5000000), wk =   0.0480000
        k(   22) = (   0.4000000   0.0000000   0.4000000), wk =   0.0240000
        k(   23) = (   0.0000000   0.6000000   0.0000000), wk =   0.0120000
        k(   24) = (  -0.1000000   0.7000000  -0.1000000), wk =   0.0480000
        k(   25) = (   0.8000000  -0.2000000   0.8000000), wk =   0.0480000
        k(   26) = (   0.7000000  -0.1000000   0.7000000), wk =   0.0480000
        k(   27) = (   0.6000000  -0.0000000   0.6000000), wk =   0.0240000
        k(   28) = (   0.0000000   0.8000000   0.0000000), wk =   0.0120000
        k(   29) = (   0.9000000  -0.1000000   0.9000000), wk =   0.0480000
        k(   30) = (   0.8000000   0.0000000   0.8000000), wk =   0.0240000
        k(   31) = (   0.0000000  -1.0000000   0.0000000), wk =   0.0060000
        k(   32) = (  -0.2000000   0.4000000   0.0000000), wk =   0.0480000
        k(   33) = (  -0.3000000   0.5000000  -0.1000000), wk =   0.0960000
        k(   34) = (   0.6000000  -0.4000000   0.8000000), wk =   0.0960000
        k(   35) = (   0.5000000  -0.3000000   0.7000000), wk =   0.0480000
        k(   36) = (  -0.2000000   0.6000000   0.0000000), wk =   0.0480000
        k(   37) = (   0.7000000  -0.3000000   0.9000000), wk =   0.0960000
        k(   38) = (   0.6000000  -0.2000000   0.8000000), wk =   0.0960000
        k(   39) = (   0.5000000  -0.1000000   0.7000000), wk =   0.0960000
        k(   40) = (   0.4000000   0.0000000   0.6000000), wk =   0.0480000
        k(   41) = (   0.8000000  -0.2000000   1.0000000), wk =   0.0480000
        k(   42) = (   0.7000000  -0.1000000   0.9000000), wk =   0.0960000
        k(   43) = (   0.6000000   0.0000000   0.8000000), wk =   0.0480000
        k(   44) = (  -0.2000000  -1.0000000   0.0000000), wk =   0.0240000
        k(   45) = (   0.6000000  -0.2000000   1.0000000), wk =   0.0480000
        k(   46) = (   0.5000000  -0.1000000   0.9000000), wk =   0.0480000
        k(   47) = (  -0.4000000  -1.0000000   0.0000000), wk =   0.0240000

     Dense  grid:    43895 G-vectors     FFT dimensions: (  50,  50,  50)

     Smooth grid:    15593 G-vectors     FFT dimensions: (  36,  36,  36)

     Estimated max dynamical RAM per process >     170.82 MB

     Initial potential from superposition of free atoms

     starting charge   13.99765, renormalised to   14.00000
     Starting wfcs are    9 randomized atomic wfcs +    2 random wfcs

     total cpu time spent up to now is        2.7 secs

     Self-consistent Calculation

     iteration #  1     ecut=    70.00 Ry     beta= 0.70
     Davidson diagonalization with overlap
     ethr =  1.00E-02,  avg # of iterations =  4.0

     Threshold (ethr) on eigenvalues was too large:
     Diagonalizing with lowered threshold

     Davidson diagonalization with overlap
     ethr =  1.71E-05,  avg # of iterations =  3.6

     total cpu time spent up to now is        9.3 secs

     total energy              =    -135.43493472 Ry
     Harris-Foulkes estimate   =    -135.43637416 Ry
     estimated scf accuracy    <       0.00240468 Ry

     iteration #  2     ecut=    70.00 Ry     beta= 0.70
     Davidson diagonalization with overlap
     ethr =  1.72E-05,  avg # of iterations =  2.1

     total cpu time spent up to now is       12.4 secs

     total energy              =    -135.43542015 Ry
     Harris-Foulkes estimate   =    -135.43553955 Ry
     estimated scf accuracy    <       0.00021045 Ry

     iteration #  3     ecut=    70.00 Ry     beta= 0.70
     Davidson diagonalization with overlap
     ethr =  1.50E-06,  avg # of iterations =  2.5

     total cpu time spent up to now is       15.4 secs

     total energy              =    -135.43546385 Ry
     Harris-Foulkes estimate   =    -135.43546493 Ry
     estimated scf accuracy    <       0.00000995 Ry

     iteration #  4     ecut=    70.00 Ry     beta= 0.70
     Davidson diagonalization with overlap
     ethr =  7.11E-08,  avg # of iterations =  1.9

     total cpu time spent up to now is       18.4 secs

     total energy              =    -135.43546505 Ry
     Harris-Foulkes estimate   =    -135.43546499 Ry
     estimated scf accuracy    <       0.00000010 Ry

     iteration #  5     ecut=    70.00 Ry     beta= 0.70
     Davidson diagonalization with overlap
     ethr =  7.01E-10,  avg # of iterations =  2.2

     total cpu time spent up to now is       21.4 secs

     total energy              =    -135.43546508 Ry
     Harris-Foulkes estimate   =    -135.43546509 Ry
     estimated scf accuracy    <       0.00000001 Ry

     iteration #  6     ecut=    70.00 Ry     beta= 0.70
     Davidson diagonalization with overlap
     ethr =  9.44E-11,  avg # of iterations =  2.1

     total cpu time spent up to now is       24.5 secs

     End of self-consistent calculation

          k = 0.0000 0.0000 0.0000 (  1917 PWs)   bands (ev):

    -5.2360  -5.2360  -5.2360  -5.0769  -5.0769  -0.1825  19.6428  19.6428
    19.6428  21.9773  23.7519

          k =-0.1000 0.1000-0.1000 (  1940 PWs)   bands (ev):

    -5.2370  -5.2206  -5.2206  -5.0776  -5.0776   0.0188  17.5270  19.3923
    19.3923  21.6086  24.5516

          k =-0.2000 0.2000-0.2000 (  1943 PWs)   bands (ev):

    -5.2428  -5.1972  -5.1972  -5.0613  -5.0613   0.6241  14.2693  18.8404
    18.8404  21.2655  24.4742

          k =-0.3000 0.3000-0.3000 (  1934 PWs)   bands (ev):

    -5.2556  -5.2014  -5.2014  -5.0065  -5.0065   1.6177  11.2223  18.2727
    18.2727  21.1163  23.1779

          k =-0.4000 0.4000-0.4000 (  1937 PWs)   bands (ev):

    -5.2699  -5.2172  -5.2172  -4.9488  -4.9488   2.8789   8.6954  17.8643
    17.8643  21.1874  22.2224

          k = 0.5000-0.5000 0.5000 (  1946 PWs)   bands (ev):

    -5.2763  -5.2244  -5.2244  -4.9252  -4.9252   3.6995   7.4487  17.7164
    17.7164  21.3866  21.7288

          k = 0.0000 0.2000 0.0000 (  1941 PWs)   bands (ev):

    -5.2542  -5.2048  -5.2048  -5.0961  -5.0638   0.0857  18.1889  18.5762
    18.5762  21.1814  24.1170

          k =-0.1000 0.3000-0.1000 (  1945 PWs)   bands (ev):

    -5.2639  -5.1776  -5.1734  -5.1065  -5.0435   0.5563  15.3801  17.7856
    18.3571  21.3282  22.7871

          k =-0.2000 0.4000-0.2000 (  1944 PWs)   bands (ev):

    -5.2650  -5.1859  -5.1675  -5.0695  -4.9942   1.4224  12.3051  17.2230
    17.6673  20.9677  23.2286

          k =-0.3000 0.5000-0.3000 (  1935 PWs)   bands (ev):

    -5.2662  -5.2081  -5.1825  -5.0086  -4.9416   2.6129   9.6168  16.8800
    16.9849  20.4712  23.5221

          k = 0.6000-0.4000 0.6000 (  1942 PWs)   bands (ev):

    -5.2643  -5.2226  -5.1961  -4.9606  -4.9235   3.7212   7.8184  16.2374
    17.1225  20.4098  23.1365

          k = 0.5000-0.3000 0.5000 (  1941 PWs)   bands (ev):

    -5.2554  -5.2229  -5.1970  -4.9536  -4.9471   3.4243   8.2578  15.8918
    17.6382  20.7569  22.7790

          k = 0.4000-0.2000 0.4000 (  1942 PWs)   bands (ev):

    -5.2466  -5.2079  -5.1847  -5.0199  -4.9718   2.1896  10.4588  15.9083
    18.4542  21.4671  22.6342

          k = 0.3000-0.1000 0.3000 (  1940 PWs)   bands (ev):

    -5.2433  -5.1913  -5.1739  -5.0857  -5.0177   1.0915  13.2843  16.3114
    19.3357  22.1925  22.9651

          k = 0.2000 0.0000 0.2000 (  1945 PWs)   bands (ev):

    -5.2426  -5.2002  -5.1958  -5.0948  -5.0565   0.3549  16.0988  17.3454
    19.7775  22.0141  24.1662

          k = 0.0000 0.4000 0.0000 (  1956 PWs)   bands (ev):

    -5.3015  -5.1519  -5.1209  -5.1209  -5.0292   0.8911  15.7287  16.8066
    16.8066  20.0948  20.9433

          k =-0.1000 0.5000-0.1000 (  1946 PWs)   bands (ev):

    -5.3150  -5.1855  -5.0939  -5.0723  -4.9885   1.6223  13.3667  16.0570
    16.1242  19.7821  20.8983

          k =-0.2000 0.6000-0.2000 (  1936 PWs)   bands (ev):

    -5.3060  -5.1985  -5.1040  -5.0417  -4.9357   2.6989  10.7841  14.9342
    15.8328  19.3398  22.9062

          k = 0.7000-0.3000 0.7000 (  1940 PWs)   bands (ev):

    -5.2908  -5.1859  -5.1210  -5.0256  -4.9190   3.8699   8.7749  13.9393
    15.9784  19.3121  25.2134

          k = 0.6000-0.2000 0.6000 (  1941 PWs)   bands (ev):

    -5.2690  -5.1770  -5.1306  -5.0097  -4.9527   4.1175   8.4389  13.2945
    16.5626  19.6511  24.9214

          k = 0.5000-0.1000 0.5000 (  1940 PWs)   bands (ev):

    -5.2384  -5.1930  -5.1270  -5.0252  -4.9932   3.0822  10.1032  13.1254
    17.5221  20.3478  24.5086

          k = 0.4000 0.0000 0.4000 (  1947 PWs)   bands (ev):

    -5.2227  -5.2076  -5.1109  -5.1087  -4.9925   1.9396  12.1704  13.8515
    18.6523  21.4039  23.8183

          k = 0.0000 0.6000 0.0000 (  1960 PWs)   bands (ev):

    -5.3596  -5.2300  -5.0130  -5.0130  -4.9862   2.2149  12.9148  15.3032
    15.3032  18.7940  19.2921

          k =-0.1000 0.7000-0.1000 (  1945 PWs)   bands (ev):

    -5.3663  -5.2554  -5.0104  -4.9787  -4.9335   3.1568  11.2303  13.9804
    14.8868  18.5149  20.0847

          k = 0.8000-0.2000 0.8000 (  1934 PWs)   bands (ev):

    -5.3426  -5.2351  -5.0275  -4.9894  -4.9118   4.2555   9.6945  12.3322
    14.9316  18.5282  22.3540

          k = 0.7000-0.1000 0.7000 (  1930 PWs)   bands (ev):

    -5.3121  -5.1607  -5.0455  -5.0405  -4.9423   4.7981   9.1990  11.1428
    15.4419  18.8215  25.1672

          k = 0.6000-0.0000 0.6000 (  1933 PWs)   bands (ev):

    -5.2752  -5.1203  -5.0692  -5.0630  -5.0005   4.1329  10.0178  10.9885
    16.3603  19.4238  26.6867

          k = 0.0000 0.8000 0.0000 (  1944 PWs)   bands (ev):

    -5.4062  -5.2989  -4.9510  -4.9220  -4.9220   3.9432  10.0956  14.3278
    14.3278  17.7092  18.8179

          k = 0.9000-0.1000 0.9000 (  1940 PWs)   bands (ev):

    -5.3980  -5.3034  -4.9572  -4.9165  -4.8989   4.8413   9.0611  12.9963
    14.2340  17.9515  19.7054

          k = 0.8000 0.0000 0.8000 (  1930 PWs)   bands (ev):

    -5.3575  -5.2520  -4.9833  -4.9655  -4.9172   5.2125   9.0976  11.2219
    14.6210  18.2851  22.1562

          k = 0.0000-1.0000 0.0000 (  1964 PWs)   bands (ev):

    -5.4240  -5.3264  -4.9376  -4.8866  -4.8866   5.2144   8.4279  13.9909
    13.9909  17.3856  18.6620

          k =-0.2000 0.4000 0.0000 (  1951 PWs)   bands (ev):

    -5.2733  -5.1729  -5.1247  -5.1202  -5.0109   1.1579  14.0063  15.5984
    18.2424  21.6070  21.6803

          k =-0.3000 0.5000-0.1000 (  1943 PWs)   bands (ev):

    -5.2630  -5.1955  -5.1318  -5.0645  -4.9716   2.1332  11.5565  14.6488
    17.3231  21.0615  23.0696

          k = 0.6000-0.4000 0.8000 (  1935 PWs)   bands (ev):

    -5.2499  -5.2188  -5.1379  -5.0176  -4.9424   3.3435   9.2199  14.3887
    16.4205  20.7607  23.1824

          k = 0.5000-0.3000 0.7000 (  1936 PWs)   bands (ev):

    -5.2377  -5.2365  -5.1386  -4.9989  -4.9324   4.0987   8.0739  14.3614
    16.0446  20.6685  22.9919

          k =-0.2000 0.6000 0.0000 (  1950 PWs)   bands (ev):

    -5.3222  -5.2146  -5.0795  -5.0156  -4.9609   2.4617  12.0971  14.1723
    15.5681  20.0775  20.7808

          k = 0.7000-0.3000 0.9000 (  1936 PWs)   bands (ev):

    -5.2991  -5.2177  -5.0890  -4.9972  -4.9358   3.5727  10.2903  13.0998
    14.7325  20.1886  22.6686

          k = 0.6000-0.2000 0.8000 (  1940 PWs)   bands (ev):

    -5.2759  -5.1880  -5.0864  -5.0364  -4.9268   4.5134   8.9456  12.3620
    14.6234  20.3849  24.4131

          k = 0.5000-0.1000 0.7000 (  1939 PWs)   bands (ev):

    -5.2514  -5.1841  -5.0899  -5.0420  -4.9566   4.2436   9.3752  11.9479
    15.1886  20.8517  24.0734

          k = 0.4000 0.0000 0.6000 (  1936 PWs)   bands (ev):

    -5.2244  -5.2220  -5.1140  -5.0194  -4.9866   3.1572  10.8124  12.4318
    16.1969  21.4407  23.6067

          k = 0.8000-0.2000 1.0000 (  1945 PWs)   bands (ev):

    -5.3623  -5.2735  -5.0082  -4.9356  -4.9229   4.1184  10.0864  13.2526
    13.6964  19.2550  20.2452

          k = 0.7000-0.1000 0.9000 (  1932 PWs)   bands (ev):

    -5.3243  -5.2447  -5.0292  -4.9815  -4.9036   4.9817   9.4281  11.5750
    13.5926  19.7728  22.3157

          k = 0.6000 0.0000 0.8000 (  1937 PWs)   bands (ev):

    -5.2880  -5.1613  -5.0886  -5.0281  -4.9264   4.9989  10.0548  10.1879
    14.1751  20.2390  25.1963

          k =-0.2000-1.0000 0.0000 (  1948 PWs)   bands (ev):

    -5.3777  -5.2978  -4.9618  -4.9436  -4.8865   5.2528   8.7648  12.9349
    13.1160  18.9966  20.0657

          k = 0.6000-0.2000 1.0000 (  1928 PWs)   bands (ev):

    -5.2434  -5.2313  -5.1054  -4.9976  -4.9248   4.5559   9.9957  11.5202
    13.4729  21.9512  23.0518

          k = 0.5000-0.1000 0.9000 (  1932 PWs)   bands (ev):

    -5.2379  -5.1816  -5.1360  -5.0291  -4.9046   5.0757   9.7472  10.9890
    12.9698  22.2628  23.9733

          k =-0.4000-1.0000 0.0000 (  1930 PWs)   bands (ev):

    -5.2519  -5.2392  -5.0866  -5.0135  -4.8864   5.3186   9.7317  11.2058
    12.2302  22.0174  22.8556

     the Fermi energy is    11.9262 ev

!    total energy              =    -135.43546508 Ry
     Harris-Foulkes estimate   =    -135.43546508 Ry
     estimated scf accuracy    <          6.4E-10 Ry

     The total energy is the sum of the following terms:

     one-electron contribution =     -31.47154476 Ry
     hartree contribution      =      26.09870480 Ry
     xc contribution           =     -32.62431892 Ry
     ewald contribution        =     -97.43857717 Ry
     smearing contrib. (-TS)   =       0.00027096 Ry

     convergence has been achieved in   6 iterations

     Writing output data file Pb.save/

     init_run     :      1.79s CPU      1.87s WALL (       1 calls)
     electrons    :     21.24s CPU     21.85s WALL (       1 calls)

     Called by init_run:
     wfcinit      :      0.82s CPU      0.82s WALL (       1 calls)
     potinit      :      0.07s CPU      0.08s WALL (       1 calls)
     hinit0       :      0.76s CPU      0.77s WALL (       1 calls)

     Called by electrons:
     c_bands      :     17.05s CPU     17.10s WALL (       7 calls)
     sum_band     :      3.29s CPU      3.60s WALL (       7 calls)
     v_of_rho     :      0.38s CPU      0.41s WALL (       7 calls)
     newd         :      0.62s CPU      0.91s WALL (       7 calls)
     mix_rho      :      0.04s CPU      0.04s WALL (       7 calls)

     Called by c_bands:
     init_us_2    :      0.35s CPU      0.36s WALL (     705 calls)
     cegterg      :     16.21s CPU     16.26s WALL (     329 calls)

     Called by sum_band:
     sum_band:bec :      0.00s CPU      0.00s WALL (     329 calls)
     addusdens    :      0.66s CPU      0.95s WALL (       7 calls)

     Called by *egterg:
     h_psi        :     13.33s CPU     13.36s WALL (    1242 calls)
     s_psi        :      0.61s CPU      0.62s WALL (    1242 calls)
     g_psi        :      0.08s CPU      0.08s WALL (     866 calls)
     cdiaghg      :      0.26s CPU      0.26s WALL (    1148 calls)

     Called by h_psi:
     h_psi:pot    :     13.29s CPU     13.32s WALL (    1242 calls)
     h_psi:calbec :      0.67s CPU      0.67s WALL (    1242 calls)
     vloc_psi     :     12.00s CPU     12.03s WALL (    1242 calls)
     add_vuspsi   :      0.62s CPU      0.62s WALL (    1242 calls)

     General routines
     calbec       :      0.88s CPU      0.89s WALL (    1571 calls)
     fft          :      0.18s CPU      0.19s WALL (      90 calls)
     ffts         :      0.02s CPU      0.02s WALL (      14 calls)
     fftw         :     12.50s CPU     12.53s WALL (   23345 calls)
     interpolate  :      0.03s CPU      0.03s WALL (       7 calls)

     Parallel routines

     PWSCF        :     23.85s CPU     24.56s WALL


   This run was terminated on:  14:56:46   1Jul2021            

=------------------------------------------------------------------------------=
   JOB DONE.
=------------------------------------------------------------------------------=
