
     Program PWSCF v.6.4.1 starts on  1Jul2021 at 13:37:16 

     This program is part of the open-source Quantum ESPRESSO suite
     for quantum simulation of materials; please cite
         "P. Giannozzi et al., J. Phys.:Condens. Matter 21 395502 (2009);
         "P. Giannozzi et al., J. Phys.:Condens. Matter 29 465901 (2017);
          URL http://www.quantum-espresso.org", 
     in publications or presentations arising from this work. More details at
     http://www.quantum-espresso.org/quote

     Parallel version (MPI), running on     1 processors

     MPI processes distributed on     1 nodes
     Waiting for input...
     Reading input from standard input

     Current dimensions of program PWSCF are:
     Max number of different atomic species (ntypx) = 10
     Max number of k-points (npk) =  40000
     Max angular momentum in pseudopotentials (lmaxx) =  3
               file Pb.pbe-dn-rrkjus_psl.1.0.0.UPF: wavefunction(s)  6S 5D renormalized

     Subspace diagonalization in iterative solution of the eigenvalue problem:
     a serial algorithm will be used


     G-vector sticks info
     --------------------
     sticks:   dense  smooth     PW     G-vecs:    dense   smooth      PW
     Sum        1639     823    253                43895    15593    2685



     bravais-lattice index     =            2
     lattice parameter (alat)  =       9.2226  a.u.
     unit-cell volume          =     196.1075 (a.u.)^3
     number of atoms/cell      =            1
     number of atomic types    =            1
     number of electrons       =        14.00
     number of Kohn-Sham states=           11
     kinetic-energy cutoff     =      70.0000  Ry
     charge density cutoff     =     560.0000  Ry
     convergence threshold     =      1.0E-09
     mixing beta               =       0.7000
     number of iterations used =            8  plain     mixing
     Exchange-correlation      = PBE ( 1  4  3  4 0 0)
     nstep                     =           50


     celldm(1)=   9.222558  celldm(2)=   0.000000  celldm(3)=   0.000000
     celldm(4)=   0.000000  celldm(5)=   0.000000  celldm(6)=   0.000000

     crystal axes: (cart. coord. in units of alat)
               a(1) = (  -0.500000   0.000000   0.500000 )  
               a(2) = (   0.000000   0.500000   0.500000 )  
               a(3) = (  -0.500000   0.500000   0.000000 )  

     reciprocal axes: (cart. coord. in units 2 pi/alat)
               b(1) = ( -1.000000 -1.000000  1.000000 )  
               b(2) = (  1.000000  1.000000  1.000000 )  
               b(3) = ( -1.000000  1.000000 -1.000000 )  


     PseudoPot. # 1 for Pb read from file:
     /home/elena/qe-6.7/pseudo/Pb.pbe-dn-rrkjus_psl.1.0.0.UPF
     MD5 check sum: 1cf8f5e18580e6a90a35f98a53d336de
     Pseudo is Ultrasoft + core correction, Zval = 14.0
     Generated using "atomic" code by A. Dal Corso v.6.3
     Using radial grid of 1281 points,  6 beta functions with: 
                l(1) =   0
                l(2) =   0
                l(3) =   1
                l(4) =   1
                l(5) =   2
                l(6) =   2
     Q(r) pseudized with 0 coefficients 


     atomic species   valence    mass     pseudopotential
        Pb            14.00   207.20000     Pb( 1.00)

     48 Sym. Ops., with inversion, found


                                    s                        frac. trans.

      isym =  1     identity                                     

 cryst.   s( 1) = (     1          0          0      )
                  (     0          1          0      )
                  (     0          0          1      )

 cart.    s( 1) = (  1.0000000  0.0000000  0.0000000 )
                  (  0.0000000  1.0000000  0.0000000 )
                  (  0.0000000  0.0000000  1.0000000 )


      isym =  2     180 deg rotation - cart. axis [0,0,1]        

 cryst.   s( 2) = (     0          1         -1      )
                  (     1          0         -1      )
                  (     0          0         -1      )

 cart.    s( 2) = ( -1.0000000  0.0000000  0.0000000 )
                  (  0.0000000 -1.0000000  0.0000000 )
                  (  0.0000000  0.0000000  1.0000000 )


      isym =  3     180 deg rotation - cart. axis [0,1,0]        

 cryst.   s( 3) = (    -1          0          0      )
                  (    -1          0          1      )
                  (    -1          1          0      )

 cart.    s( 3) = ( -1.0000000  0.0000000  0.0000000 )
                  (  0.0000000  1.0000000  0.0000000 )
                  (  0.0000000  0.0000000 -1.0000000 )


      isym =  4     180 deg rotation - cart. axis [1,0,0]        

 cryst.   s( 4) = (     0         -1          1      )
                  (     0         -1          0      )
                  (     1         -1          0      )

 cart.    s( 4) = (  1.0000000  0.0000000  0.0000000 )
                  (  0.0000000 -1.0000000  0.0000000 )
                  (  0.0000000  0.0000000 -1.0000000 )


      isym =  5     180 deg rotation - cart. axis [1,1,0]        

 cryst.   s( 5) = (     0         -1          0      )
                  (    -1          0          0      )
                  (     0          0         -1      )

 cart.    s( 5) = (  0.0000000  1.0000000  0.0000000 )
                  (  1.0000000  0.0000000  0.0000000 )
                  (  0.0000000  0.0000000 -1.0000000 )


      isym =  6     180 deg rotation - cart. axis [1,-1,0]       

 cryst.   s( 6) = (    -1          0          1      )
                  (     0         -1          1      )
                  (     0          0          1      )

 cart.    s( 6) = (  0.0000000 -1.0000000  0.0000000 )
                  ( -1.0000000  0.0000000  0.0000000 )
                  (  0.0000000  0.0000000 -1.0000000 )


      isym =  7      90 deg rotation - cart. axis [0,0,-1]       

 cryst.   s( 7) = (     0          1          0      )
                  (     0          1         -1      )
                  (    -1          1          0      )

 cart.    s( 7) = (  0.0000000  1.0000000  0.0000000 )
                  ( -1.0000000  0.0000000  0.0000000 )
                  (  0.0000000  0.0000000  1.0000000 )


      isym =  8      90 deg rotation - cart. axis [0,0,1]        

 cryst.   s( 8) = (     1          0         -1      )
                  (     1          0          0      )
                  (     1         -1          0      )

 cart.    s( 8) = (  0.0000000 -1.0000000  0.0000000 )
                  (  1.0000000  0.0000000  0.0000000 )
                  (  0.0000000  0.0000000  1.0000000 )


      isym =  9     180 deg rotation - cart. axis [1,0,1]        

 cryst.   s( 9) = (    -1          0          0      )
                  (     0          0         -1      )
                  (     0         -1          0      )

 cart.    s( 9) = (  0.0000000  0.0000000  1.0000000 )
                  (  0.0000000 -1.0000000  0.0000000 )
                  (  1.0000000  0.0000000  0.0000000 )


      isym = 10     180 deg rotation - cart. axis [-1,0,1]       

 cryst.   s(10) = (     1          0          0      )
                  (     1         -1          0      )
                  (     1          0         -1      )

 cart.    s(10) = (  0.0000000  0.0000000 -1.0000000 )
                  (  0.0000000 -1.0000000  0.0000000 )
                  ( -1.0000000  0.0000000  0.0000000 )


      isym = 11      90 deg rotation - cart. axis [0,1,0]        

 cryst.   s(11) = (     0          1         -1      )
                  (    -1          1          0      )
                  (     0          1          0      )

 cart.    s(11) = (  0.0000000  0.0000000  1.0000000 )
                  (  0.0000000  1.0000000  0.0000000 )
                  ( -1.0000000  0.0000000  0.0000000 )


      isym = 12      90 deg rotation - cart. axis [0,-1,0]       

 cryst.   s(12) = (     0         -1          1      )
                  (     0          0          1      )
                  (    -1          0          1      )

 cart.    s(12) = (  0.0000000  0.0000000 -1.0000000 )
                  (  0.0000000  1.0000000  0.0000000 )
                  (  1.0000000  0.0000000  0.0000000 )


      isym = 13     180 deg rotation - cart. axis [0,1,1]        

 cryst.   s(13) = (    -1          1          0      )
                  (     0          1          0      )
                  (     0          1         -1      )

 cart.    s(13) = ( -1.0000000  0.0000000  0.0000000 )
                  (  0.0000000  0.0000000  1.0000000 )
                  (  0.0000000  1.0000000  0.0000000 )


      isym = 14     180 deg rotation - cart. axis [0,1,-1]       

 cryst.   s(14) = (     0          0         -1      )
                  (     0         -1          0      )
                  (    -1          0          0      )

 cart.    s(14) = ( -1.0000000  0.0000000  0.0000000 )
                  (  0.0000000  0.0000000 -1.0000000 )
                  (  0.0000000 -1.0000000  0.0000000 )


      isym = 15      90 deg rotation - cart. axis [-1,0,0]       

 cryst.   s(15) = (     0          0          1      )
                  (    -1          0          1      )
                  (     0         -1          1      )

 cart.    s(15) = (  1.0000000  0.0000000  0.0000000 )
                  (  0.0000000  0.0000000  1.0000000 )
                  (  0.0000000 -1.0000000  0.0000000 )


      isym = 16      90 deg rotation - cart. axis [1,0,0]        

 cryst.   s(16) = (     1         -1          0      )
                  (     1          0         -1      )
                  (     1          0          0      )

 cart.    s(16) = (  1.0000000  0.0000000  0.0000000 )
                  (  0.0000000  0.0000000 -1.0000000 )
                  (  0.0000000  1.0000000  0.0000000 )


      isym = 17     120 deg rotation - cart. axis [-1,-1,-1]     

 cryst.   s(17) = (    -1          0          1      )
                  (    -1          1          0      )
                  (    -1          0          0      )

 cart.    s(17) = (  0.0000000  1.0000000  0.0000000 )
                  (  0.0000000  0.0000000  1.0000000 )
                  (  1.0000000  0.0000000  0.0000000 )


      isym = 18     120 deg rotation - cart. axis [-1,1,1]       

 cryst.   s(18) = (     0          1          0      )
                  (     0          0          1      )
                  (     1          0          0      )

 cart.    s(18) = (  0.0000000 -1.0000000  0.0000000 )
                  (  0.0000000  0.0000000  1.0000000 )
                  ( -1.0000000  0.0000000  0.0000000 )


      isym = 19     120 deg rotation - cart. axis [1,1,-1]       

 cryst.   s(19) = (     1          0         -1      )
                  (     0          0         -1      )
                  (     0          1         -1      )

 cart.    s(19) = (  0.0000000  1.0000000  0.0000000 )
                  (  0.0000000  0.0000000 -1.0000000 )
                  ( -1.0000000  0.0000000  0.0000000 )


      isym = 20     120 deg rotation - cart. axis [1,-1,1]       

 cryst.   s(20) = (     0         -1          0      )
                  (     1         -1          0      )
                  (     0         -1          1      )

 cart.    s(20) = (  0.0000000 -1.0000000  0.0000000 )
                  (  0.0000000  0.0000000 -1.0000000 )
                  (  1.0000000  0.0000000  0.0000000 )


      isym = 21     120 deg rotation - cart. axis [1,1,1]        

 cryst.   s(21) = (     0          0         -1      )
                  (     0          1         -1      )
                  (     1          0         -1      )

 cart.    s(21) = (  0.0000000  0.0000000  1.0000000 )
                  (  1.0000000  0.0000000  0.0000000 )
                  (  0.0000000  1.0000000  0.0000000 )


      isym = 22     120 deg rotation - cart. axis [-1,1,-1]      

 cryst.   s(22) = (    -1          1          0      )
                  (    -1          0          0      )
                  (    -1          0          1      )

 cart.    s(22) = (  0.0000000  0.0000000  1.0000000 )
                  ( -1.0000000  0.0000000  0.0000000 )
                  (  0.0000000 -1.0000000  0.0000000 )


      isym = 23     120 deg rotation - cart. axis [1,-1,-1]      

 cryst.   s(23) = (     0          0          1      )
                  (     1          0          0      )
                  (     0          1          0      )

 cart.    s(23) = (  0.0000000  0.0000000 -1.0000000 )
                  ( -1.0000000  0.0000000  0.0000000 )
                  (  0.0000000  1.0000000  0.0000000 )


      isym = 24     120 deg rotation - cart. axis [-1,-1,1]      

 cryst.   s(24) = (     1         -1          0      )
                  (     0         -1          1      )
                  (     0         -1          0      )

 cart.    s(24) = (  0.0000000  0.0000000 -1.0000000 )
                  (  1.0000000  0.0000000  0.0000000 )
                  (  0.0000000 -1.0000000  0.0000000 )


      isym = 25     inversion                                    

 cryst.   s(25) = (    -1          0          0      )
                  (     0         -1          0      )
                  (     0          0         -1      )

 cart.    s(25) = ( -1.0000000  0.0000000  0.0000000 )
                  (  0.0000000 -1.0000000  0.0000000 )
                  (  0.0000000  0.0000000 -1.0000000 )


      isym = 26     inv. 180 deg rotation - cart. axis [0,0,1]   

 cryst.   s(26) = (     0         -1          1      )
                  (    -1          0          1      )
                  (     0          0          1      )

 cart.    s(26) = (  1.0000000  0.0000000  0.0000000 )
                  (  0.0000000  1.0000000  0.0000000 )
                  (  0.0000000  0.0000000 -1.0000000 )


      isym = 27     inv. 180 deg rotation - cart. axis [0,1,0]   

 cryst.   s(27) = (     1          0          0      )
                  (     1          0         -1      )
                  (     1         -1          0      )

 cart.    s(27) = (  1.0000000  0.0000000  0.0000000 )
                  (  0.0000000 -1.0000000  0.0000000 )
                  (  0.0000000  0.0000000  1.0000000 )


      isym = 28     inv. 180 deg rotation - cart. axis [1,0,0]   

 cryst.   s(28) = (     0          1         -1      )
                  (     0          1          0      )
                  (    -1          1          0      )

 cart.    s(28) = ( -1.0000000  0.0000000  0.0000000 )
                  (  0.0000000  1.0000000  0.0000000 )
                  (  0.0000000  0.0000000  1.0000000 )


      isym = 29     inv. 180 deg rotation - cart. axis [1,1,0]   

 cryst.   s(29) = (     0          1          0      )
                  (     1          0          0      )
                  (     0          0          1      )

 cart.    s(29) = (  0.0000000 -1.0000000  0.0000000 )
                  ( -1.0000000  0.0000000  0.0000000 )
                  (  0.0000000  0.0000000  1.0000000 )


      isym = 30     inv. 180 deg rotation - cart. axis [1,-1,0]  

 cryst.   s(30) = (     1          0         -1      )
                  (     0          1         -1      )
                  (     0          0         -1      )

 cart.    s(30) = (  0.0000000  1.0000000  0.0000000 )
                  (  1.0000000  0.0000000  0.0000000 )
                  (  0.0000000  0.0000000  1.0000000 )


      isym = 31     inv.  90 deg rotation - cart. axis [0,0,-1]  

 cryst.   s(31) = (     0         -1          0      )
                  (     0         -1          1      )
                  (     1         -1          0      )

 cart.    s(31) = (  0.0000000 -1.0000000  0.0000000 )
                  (  1.0000000  0.0000000  0.0000000 )
                  (  0.0000000  0.0000000 -1.0000000 )


      isym = 32     inv.  90 deg rotation - cart. axis [0,0,1]   

 cryst.   s(32) = (    -1          0          1      )
                  (    -1          0          0      )
                  (    -1          1          0      )

 cart.    s(32) = (  0.0000000  1.0000000  0.0000000 )
                  ( -1.0000000  0.0000000  0.0000000 )
                  (  0.0000000  0.0000000 -1.0000000 )


      isym = 33     inv. 180 deg rotation - cart. axis [1,0,1]   

 cryst.   s(33) = (     1          0          0      )
                  (     0          0          1      )
                  (     0          1          0      )

 cart.    s(33) = (  0.0000000  0.0000000 -1.0000000 )
                  (  0.0000000  1.0000000  0.0000000 )
                  ( -1.0000000  0.0000000  0.0000000 )


      isym = 34     inv. 180 deg rotation - cart. axis [-1,0,1]  

 cryst.   s(34) = (    -1          0          0      )
                  (    -1          1          0      )
                  (    -1          0          1      )

 cart.    s(34) = (  0.0000000  0.0000000  1.0000000 )
                  (  0.0000000  1.0000000  0.0000000 )
                  (  1.0000000  0.0000000  0.0000000 )


      isym = 35     inv.  90 deg rotation - cart. axis [0,1,0]   

 cryst.   s(35) = (     0         -1          1      )
                  (     1         -1          0      )
                  (     0         -1          0      )

 cart.    s(35) = (  0.0000000  0.0000000 -1.0000000 )
                  (  0.0000000 -1.0000000  0.0000000 )
                  (  1.0000000  0.0000000  0.0000000 )


      isym = 36     inv.  90 deg rotation - cart. axis [0,-1,0]  

 cryst.   s(36) = (     0          1         -1      )
                  (     0          0         -1      )
                  (     1          0         -1      )

 cart.    s(36) = (  0.0000000  0.0000000  1.0000000 )
                  (  0.0000000 -1.0000000  0.0000000 )
                  ( -1.0000000  0.0000000  0.0000000 )


      isym = 37     inv. 180 deg rotation - cart. axis [0,1,1]   

 cryst.   s(37) = (     1         -1          0      )
                  (     0         -1          0      )
                  (     0         -1          1      )

 cart.    s(37) = (  1.0000000  0.0000000  0.0000000 )
                  (  0.0000000  0.0000000 -1.0000000 )
                  (  0.0000000 -1.0000000  0.0000000 )


      isym = 38     inv. 180 deg rotation - cart. axis [0,1,-1]  

 cryst.   s(38) = (     0          0          1      )
                  (     0          1          0      )
                  (     1          0          0      )

 cart.    s(38) = (  1.0000000  0.0000000  0.0000000 )
                  (  0.0000000  0.0000000  1.0000000 )
                  (  0.0000000  1.0000000  0.0000000 )


      isym = 39     inv.  90 deg rotation - cart. axis [-1,0,0]  

 cryst.   s(39) = (     0          0         -1      )
                  (     1          0         -1      )
                  (     0          1         -1      )

 cart.    s(39) = ( -1.0000000  0.0000000  0.0000000 )
                  (  0.0000000  0.0000000 -1.0000000 )
                  (  0.0000000  1.0000000  0.0000000 )


      isym = 40     inv.  90 deg rotation - cart. axis [1,0,0]   

 cryst.   s(40) = (    -1          1          0      )
                  (    -1          0          1      )
                  (    -1          0          0      )

 cart.    s(40) = ( -1.0000000  0.0000000  0.0000000 )
                  (  0.0000000  0.0000000  1.0000000 )
                  (  0.0000000 -1.0000000  0.0000000 )


      isym = 41     inv. 120 deg rotation - cart. axis [-1,-1,-1]

 cryst.   s(41) = (     1          0         -1      )
                  (     1         -1          0      )
                  (     1          0          0      )

 cart.    s(41) = (  0.0000000 -1.0000000  0.0000000 )
                  (  0.0000000  0.0000000 -1.0000000 )
                  ( -1.0000000  0.0000000  0.0000000 )


      isym = 42     inv. 120 deg rotation - cart. axis [-1,1,1]  

 cryst.   s(42) = (     0         -1          0      )
                  (     0          0         -1      )
                  (    -1          0          0      )

 cart.    s(42) = (  0.0000000  1.0000000  0.0000000 )
                  (  0.0000000  0.0000000 -1.0000000 )
                  (  1.0000000  0.0000000  0.0000000 )


      isym = 43     inv. 120 deg rotation - cart. axis [1,1,-1]  

 cryst.   s(43) = (    -1          0          1      )
                  (     0          0          1      )
                  (     0         -1          1      )

 cart.    s(43) = (  0.0000000 -1.0000000  0.0000000 )
                  (  0.0000000  0.0000000  1.0000000 )
                  (  1.0000000  0.0000000  0.0000000 )


      isym = 44     inv. 120 deg rotation - cart. axis [1,-1,1]  

 cryst.   s(44) = (     0          1          0      )
                  (    -1          1          0      )
                  (     0          1         -1      )

 cart.    s(44) = (  0.0000000  1.0000000  0.0000000 )
                  (  0.0000000  0.0000000  1.0000000 )
                  ( -1.0000000  0.0000000  0.0000000 )


      isym = 45     inv. 120 deg rotation - cart. axis [1,1,1]   

 cryst.   s(45) = (     0          0          1      )
                  (     0         -1          1      )
                  (    -1          0          1      )

 cart.    s(45) = (  0.0000000  0.0000000 -1.0000000 )
                  ( -1.0000000  0.0000000  0.0000000 )
                  (  0.0000000 -1.0000000  0.0000000 )


      isym = 46     inv. 120 deg rotation - cart. axis [-1,1,-1] 

 cryst.   s(46) = (     1         -1          0      )
                  (     1          0          0      )
                  (     1          0         -1      )

 cart.    s(46) = (  0.0000000  0.0000000 -1.0000000 )
                  (  1.0000000  0.0000000  0.0000000 )
                  (  0.0000000  1.0000000  0.0000000 )


      isym = 47     inv. 120 deg rotation - cart. axis [1,-1,-1] 

 cryst.   s(47) = (     0          0         -1      )
                  (    -1          0          0      )
                  (     0         -1          0      )

 cart.    s(47) = (  0.0000000  0.0000000  1.0000000 )
                  (  1.0000000  0.0000000  0.0000000 )
                  (  0.0000000 -1.0000000  0.0000000 )


      isym = 48     inv. 120 deg rotation - cart. axis [-1,-1,1] 

 cryst.   s(48) = (    -1          1          0      )
                  (     0          1         -1      )
                  (     0          1          0      )

 cart.    s(48) = (  0.0000000  0.0000000  1.0000000 )
                  ( -1.0000000  0.0000000  0.0000000 )
                  (  0.0000000  1.0000000  0.0000000 )


     point group O_h (m-3m) 
     there are 10 classes
     the character table:

       E     8C3   3C2   6C4   6C2'  i     8S6   3s_h  6S4   6s_d 
A_1g   1.00  1.00  1.00  1.00  1.00  1.00  1.00  1.00  1.00  1.00
A_2g   1.00  1.00  1.00 -1.00 -1.00  1.00  1.00  1.00 -1.00 -1.00
E_g    2.00 -1.00  2.00  0.00  0.00  2.00 -1.00  2.00  0.00  0.00
T_1g   3.00  0.00 -1.00  1.00 -1.00  3.00  0.00 -1.00  1.00 -1.00
T_2g   3.00  0.00 -1.00 -1.00  1.00  3.00  0.00 -1.00 -1.00  1.00
A_1u   1.00  1.00  1.00  1.00  1.00 -1.00 -1.00 -1.00 -1.00 -1.00
A_2u   1.00  1.00  1.00 -1.00 -1.00 -1.00 -1.00 -1.00  1.00  1.00
E_u    2.00 -1.00  2.00  0.00  0.00 -2.00  1.00 -2.00  0.00  0.00
T_1u   3.00  0.00 -1.00  1.00 -1.00 -3.00  0.00  1.00 -1.00  1.00
T_2u   3.00  0.00 -1.00 -1.00  1.00 -3.00  0.00  1.00  1.00 -1.00

     the symmetry operations in each class and the name of the first element:

     E        1
          identity                                               
     8C3     17   19   20   18   24   21   22   23
          120 deg rotation - cart. axis [-1,-1,-1]               
     3C2      2    4    3
          180 deg rotation - cart. axis [0,0,1]                  
     6C4      7    8   15   16   12   11
           90 deg rotation - cart. axis [0,0,-1]                 
     6C2'     5    6   14   13   10    9
          180 deg rotation - cart. axis [1,1,0]                  
     i       25
          inversion                                              
     8S6     41   43   44   42   48   45   46   47
          inv. 120 deg rotation - cart. axis [-1,-1,-1]          
     3s_h    26   28   27
          inv. 180 deg rotation - cart. axis [0,0,1]             
     6S4     31   32   39   40   36   35
          inv.  90 deg rotation - cart. axis [0,0,-1]            
     6s_d    29   30   38   37   34   33
          inv. 180 deg rotation - cart. axis [1,1,0]             

   Cartesian axes

     site n.     atom                  positions (alat units)
         1           Pb  tau(   1) = (   0.0000000   0.0000000   0.0000000  )

   Crystallographic axes

     site n.     atom                  positions (cryst. coord.)
         1           Pb  tau(   1) = (  0.0000000  0.0000000  0.0000000  )

     number of k points=    47  Methfessel-Paxton smearing, width (Ry)=  0.0500
                       cart. coord. in units 2pi/alat
        k(    1) = (   0.0000000   0.0000000   0.0000000), wk =   0.0020000
        k(    2) = (  -0.1000000   0.1000000  -0.1000000), wk =   0.0160000
        k(    3) = (  -0.2000000   0.2000000  -0.2000000), wk =   0.0160000
        k(    4) = (  -0.3000000   0.3000000  -0.3000000), wk =   0.0160000
        k(    5) = (  -0.4000000   0.4000000  -0.4000000), wk =   0.0160000
        k(    6) = (   0.5000000  -0.5000000   0.5000000), wk =   0.0080000
        k(    7) = (   0.0000000   0.2000000   0.0000000), wk =   0.0120000
        k(    8) = (  -0.1000000   0.3000000  -0.1000000), wk =   0.0480000
        k(    9) = (  -0.2000000   0.4000000  -0.2000000), wk =   0.0480000
        k(   10) = (  -0.3000000   0.5000000  -0.3000000), wk =   0.0480000
        k(   11) = (   0.6000000  -0.4000000   0.6000000), wk =   0.0480000
        k(   12) = (   0.5000000  -0.3000000   0.5000000), wk =   0.0480000
        k(   13) = (   0.4000000  -0.2000000   0.4000000), wk =   0.0480000
        k(   14) = (   0.3000000  -0.1000000   0.3000000), wk =   0.0480000
        k(   15) = (   0.2000000   0.0000000   0.2000000), wk =   0.0240000
        k(   16) = (   0.0000000   0.4000000   0.0000000), wk =   0.0120000
        k(   17) = (  -0.1000000   0.5000000  -0.1000000), wk =   0.0480000
        k(   18) = (  -0.2000000   0.6000000  -0.2000000), wk =   0.0480000
        k(   19) = (   0.7000000  -0.3000000   0.7000000), wk =   0.0480000
        k(   20) = (   0.6000000  -0.2000000   0.6000000), wk =   0.0480000
        k(   21) = (   0.5000000  -0.1000000   0.5000000), wk =   0.0480000
        k(   22) = (   0.4000000   0.0000000   0.4000000), wk =   0.0240000
        k(   23) = (   0.0000000   0.6000000   0.0000000), wk =   0.0120000
        k(   24) = (  -0.1000000   0.7000000  -0.1000000), wk =   0.0480000
        k(   25) = (   0.8000000  -0.2000000   0.8000000), wk =   0.0480000
        k(   26) = (   0.7000000  -0.1000000   0.7000000), wk =   0.0480000
        k(   27) = (   0.6000000  -0.0000000   0.6000000), wk =   0.0240000
        k(   28) = (   0.0000000   0.8000000   0.0000000), wk =   0.0120000
        k(   29) = (   0.9000000  -0.1000000   0.9000000), wk =   0.0480000
        k(   30) = (   0.8000000   0.0000000   0.8000000), wk =   0.0240000
        k(   31) = (   0.0000000  -1.0000000   0.0000000), wk =   0.0060000
        k(   32) = (  -0.2000000   0.4000000   0.0000000), wk =   0.0480000
        k(   33) = (  -0.3000000   0.5000000  -0.1000000), wk =   0.0960000
        k(   34) = (   0.6000000  -0.4000000   0.8000000), wk =   0.0960000
        k(   35) = (   0.5000000  -0.3000000   0.7000000), wk =   0.0480000
        k(   36) = (  -0.2000000   0.6000000   0.0000000), wk =   0.0480000
        k(   37) = (   0.7000000  -0.3000000   0.9000000), wk =   0.0960000
        k(   38) = (   0.6000000  -0.2000000   0.8000000), wk =   0.0960000
        k(   39) = (   0.5000000  -0.1000000   0.7000000), wk =   0.0960000
        k(   40) = (   0.4000000   0.0000000   0.6000000), wk =   0.0480000
        k(   41) = (   0.8000000  -0.2000000   1.0000000), wk =   0.0480000
        k(   42) = (   0.7000000  -0.1000000   0.9000000), wk =   0.0960000
        k(   43) = (   0.6000000   0.0000000   0.8000000), wk =   0.0480000
        k(   44) = (  -0.2000000  -1.0000000   0.0000000), wk =   0.0240000
        k(   45) = (   0.6000000  -0.2000000   1.0000000), wk =   0.0480000
        k(   46) = (   0.5000000  -0.1000000   0.9000000), wk =   0.0480000
        k(   47) = (  -0.4000000  -1.0000000   0.0000000), wk =   0.0240000

                       cryst. coord.
        k(    1) = (   0.0000000   0.0000000   0.0000000), wk =   0.0020000
        k(    2) = (   0.0000000   0.0000000   0.1000000), wk =   0.0160000
        k(    3) = (   0.0000000   0.0000000   0.2000000), wk =   0.0160000
        k(    4) = (   0.0000000   0.0000000   0.3000000), wk =   0.0160000
        k(    5) = (   0.0000000   0.0000000   0.4000000), wk =   0.0160000
        k(    6) = (   0.0000000   0.0000000  -0.5000000), wk =   0.0080000
        k(    7) = (   0.0000000   0.1000000   0.1000000), wk =   0.0120000
        k(    8) = (   0.0000000   0.1000000   0.2000000), wk =   0.0480000
        k(    9) = (   0.0000000   0.1000000   0.3000000), wk =   0.0480000
        k(   10) = (   0.0000000   0.1000000   0.4000000), wk =   0.0480000
        k(   11) = (   0.0000000   0.1000000  -0.5000000), wk =   0.0480000
        k(   12) = (   0.0000000   0.1000000  -0.4000000), wk =   0.0480000
        k(   13) = (   0.0000000   0.1000000  -0.3000000), wk =   0.0480000
        k(   14) = (   0.0000000   0.1000000  -0.2000000), wk =   0.0480000
        k(   15) = (   0.0000000   0.1000000  -0.1000000), wk =   0.0240000
        k(   16) = (   0.0000000   0.2000000   0.2000000), wk =   0.0120000
        k(   17) = (   0.0000000   0.2000000   0.3000000), wk =   0.0480000
        k(   18) = (   0.0000000   0.2000000   0.4000000), wk =   0.0480000
        k(   19) = (   0.0000000   0.2000000  -0.5000000), wk =   0.0480000
        k(   20) = (   0.0000000   0.2000000  -0.4000000), wk =   0.0480000
        k(   21) = (   0.0000000   0.2000000  -0.3000000), wk =   0.0480000
        k(   22) = (   0.0000000   0.2000000  -0.2000000), wk =   0.0240000
        k(   23) = (   0.0000000   0.3000000   0.3000000), wk =   0.0120000
        k(   24) = (   0.0000000   0.3000000   0.4000000), wk =   0.0480000
        k(   25) = (   0.0000000   0.3000000  -0.5000000), wk =   0.0480000
        k(   26) = (   0.0000000   0.3000000  -0.4000000), wk =   0.0480000
        k(   27) = (   0.0000000   0.3000000  -0.3000000), wk =   0.0240000
        k(   28) = (   0.0000000   0.4000000   0.4000000), wk =   0.0120000
        k(   29) = (   0.0000000   0.4000000  -0.5000000), wk =   0.0480000
        k(   30) = (   0.0000000   0.4000000  -0.4000000), wk =   0.0240000
        k(   31) = (   0.0000000  -0.5000000  -0.5000000), wk =   0.0060000
        k(   32) = (   0.1000000   0.2000000   0.3000000), wk =   0.0480000
        k(   33) = (   0.1000000   0.2000000   0.4000000), wk =   0.0960000
        k(   34) = (   0.1000000   0.2000000  -0.5000000), wk =   0.0960000
        k(   35) = (   0.1000000   0.2000000  -0.4000000), wk =   0.0480000
        k(   36) = (   0.1000000   0.3000000   0.4000000), wk =   0.0480000
        k(   37) = (   0.1000000   0.3000000  -0.5000000), wk =   0.0960000
        k(   38) = (   0.1000000   0.3000000  -0.4000000), wk =   0.0960000
        k(   39) = (   0.1000000   0.3000000  -0.3000000), wk =   0.0960000
        k(   40) = (   0.1000000   0.3000000  -0.2000000), wk =   0.0480000
        k(   41) = (   0.1000000   0.4000000  -0.5000000), wk =   0.0480000
        k(   42) = (   0.1000000   0.4000000  -0.4000000), wk =   0.0960000
        k(   43) = (   0.1000000   0.4000000  -0.3000000), wk =   0.0480000
        k(   44) = (   0.1000000  -0.5000000  -0.4000000), wk =   0.0240000
        k(   45) = (   0.2000000   0.4000000  -0.4000000), wk =   0.0480000
        k(   46) = (   0.2000000   0.4000000  -0.3000000), wk =   0.0480000
        k(   47) = (   0.2000000  -0.5000000  -0.3000000), wk =   0.0240000

     Dense  grid:    43895 G-vectors     FFT dimensions: (  50,  50,  50)

     Smooth grid:    15593 G-vectors     FFT dimensions: (  36,  36,  36)

     Dynamical RAM for                 wfc:       0.33 MB

     Dynamical RAM for     wfc (w. buffer):      15.63 MB

     Dynamical RAM for           str. fact:       0.67 MB

     Dynamical RAM for           local pot:       0.00 MB

     Dynamical RAM for          nlocal pot:       0.53 MB

     Dynamical RAM for                qrad:       5.57 MB

     Dynamical RAM for          rho,v,vnew:       4.87 MB

     Dynamical RAM for               rhoin:       1.62 MB

     Dynamical RAM for            rho*nmix:      10.72 MB

     Dynamical RAM for           G-vectors:       2.63 MB

     Dynamical RAM for          h,s,v(r/c):       0.09 MB

     Dynamical RAM for          <psi|beta>:       0.00 MB

     Dynamical RAM for                 psi:       1.30 MB

     Dynamical RAM for                hpsi:       1.30 MB

     Dynamical RAM for                spsi:       1.30 MB

     Dynamical RAM for      wfcinit/wfcrot:       0.65 MB

     Dynamical RAM for           addusdens:     125.25 MB

     Dynamical RAM for          addusforce:     125.59 MB

     Dynamical RAM for         addusstress:     134.63 MB

     Estimated static dynamical RAM per process >      48.35 MB

     Estimated max dynamical RAM per process >     182.98 MB

     Initial potential from superposition of free atoms

     starting charge   13.99765, renormalised to   14.00000
     Starting wfcs are    9 randomized atomic wfcs +    2 random wfcs

     total cpu time spent up to now is        5.6 secs

     Self-consistent Calculation

     iteration #  1     ecut=    70.00 Ry     beta= 0.70
     Davidson diagonalization with overlap
     ethr =  1.00E-02,  avg # of iterations =  4.0

     Threshold (ethr) on eigenvalues was too large:
     Diagonalizing with lowered threshold

     Davidson diagonalization with overlap
     ethr =  1.67E-05,  avg # of iterations =  3.6

     total cpu time spent up to now is       12.4 secs

     total energy              =    -135.43474531 Ry
     Harris-Foulkes estimate   =    -135.43615563 Ry
     estimated scf accuracy    <       0.00234817 Ry

     iteration #  2     ecut=    70.00 Ry     beta= 0.70
     Davidson diagonalization with overlap
     ethr =  1.68E-05,  avg # of iterations =  2.1

     total cpu time spent up to now is       15.8 secs

     total energy              =    -135.43522067 Ry
     Harris-Foulkes estimate   =    -135.43533821 Ry
     estimated scf accuracy    <       0.00020612 Ry

     iteration #  3     ecut=    70.00 Ry     beta= 0.70
     Davidson diagonalization with overlap
     ethr =  1.47E-06,  avg # of iterations =  2.5

     total cpu time spent up to now is       19.1 secs

     total energy              =    -135.43526357 Ry
     Harris-Foulkes estimate   =    -135.43526463 Ry
     estimated scf accuracy    <       0.00000969 Ry

     iteration #  4     ecut=    70.00 Ry     beta= 0.70
     Davidson diagonalization with overlap
     ethr =  6.92E-08,  avg # of iterations =  1.9

     total cpu time spent up to now is       21.9 secs

     total energy              =    -135.43526474 Ry
     Harris-Foulkes estimate   =    -135.43526468 Ry
     estimated scf accuracy    <       0.00000010 Ry

     iteration #  5     ecut=    70.00 Ry     beta= 0.70
     Davidson diagonalization with overlap
     ethr =  6.97E-10,  avg # of iterations =  2.2

     total cpu time spent up to now is       25.6 secs

     total energy              =    -135.43526477 Ry
     Harris-Foulkes estimate   =    -135.43526478 Ry
     estimated scf accuracy    <       0.00000001 Ry

     iteration #  6     ecut=    70.00 Ry     beta= 0.70
     Davidson diagonalization with overlap
     ethr =  9.35E-11,  avg # of iterations =  2.1

     total cpu time spent up to now is       29.0 secs

     End of self-consistent calculation

          k = 0.0000 0.0000 0.0000 (  1917 PWs)   bands (ev):

    -5.2320  -5.2320  -5.2320  -5.0728  -5.0728  -0.1812  19.6440  19.6440
    19.6440  21.9777  23.7523

     occupation numbers 
     1.0000   1.0000   1.0000   1.0000   1.0000   1.0000  -0.0000  -0.0000
    -0.0000  -0.0000  -0.0000

          k =-0.1000 0.1000-0.1000 (  1940 PWs)   bands (ev):

    -5.2330  -5.2166  -5.2166  -5.0735  -5.0735   0.0200  17.5281  19.3936
    19.3936  21.6091  24.5520

     occupation numbers 
     1.0000   1.0000   1.0000   1.0000   1.0000   1.0000  -0.0000  -0.0000
    -0.0000  -0.0000  -0.0000

          k =-0.2000 0.2000-0.2000 (  1943 PWs)   bands (ev):

    -5.2388  -5.1932  -5.1932  -5.0572  -5.0572   0.6254  14.2704  18.8417
    18.8417  21.2661  24.4745

     occupation numbers 
     1.0000   1.0000   1.0000   1.0000   1.0000   1.0000  -0.0000  -0.0000
    -0.0000  -0.0000  -0.0000

          k =-0.3000 0.3000-0.3000 (  1934 PWs)   bands (ev):

    -5.2516  -5.1973  -5.1973  -5.0024  -5.0024   1.6190  11.2234  18.2740
    18.2740  21.1169  23.1784

     occupation numbers 
     1.0000   1.0000   1.0000   1.0000   1.0000   1.0000   1.0245  -0.0000
    -0.0000  -0.0000  -0.0000

          k =-0.4000 0.4000-0.4000 (  1937 PWs)   bands (ev):

    -5.2659  -5.2131  -5.2131  -4.9446  -4.9446   2.8804   8.6963  17.8656
    17.8656  21.1878  22.2231

     occupation numbers 
     1.0000   1.0000   1.0000   1.0000   1.0000   1.0000   1.0000  -0.0000
    -0.0000  -0.0000  -0.0000

          k = 0.5000-0.5000 0.5000 (  1946 PWs)   bands (ev):

    -5.2723  -5.2203  -5.2203  -4.9211  -4.9211   3.7012   7.4494  17.7176
    17.7176  21.3865  21.7301

     occupation numbers 
     1.0000   1.0000   1.0000   1.0000   1.0000   1.0000   1.0000  -0.0000
    -0.0000  -0.0000  -0.0000

          k = 0.0000 0.2000 0.0000 (  1941 PWs)   bands (ev):

    -5.2502  -5.2008  -5.2008  -5.0919  -5.0596   0.0870  18.1901  18.5774
    18.5774  21.1820  24.1173

     occupation numbers 
     1.0000   1.0000   1.0000   1.0000   1.0000   1.0000  -0.0000  -0.0000
    -0.0000  -0.0000  -0.0000

          k =-0.1000 0.3000-0.1000 (  1945 PWs)   bands (ev):

    -5.2599  -5.1736  -5.1694  -5.1024  -5.0394   0.5575  15.3813  17.7868
    18.3584  21.3289  22.7874

     occupation numbers 
     1.0000   1.0000   1.0000   1.0000   1.0000   1.0000  -0.0000  -0.0000
    -0.0000  -0.0000  -0.0000

          k =-0.2000 0.4000-0.2000 (  1944 PWs)   bands (ev):

    -5.2610  -5.1819  -5.1635  -5.0654  -4.9901   1.4238  12.3062  17.2242
    17.6686  20.9681  23.2293

     occupation numbers 
     1.0000   1.0000   1.0000   1.0000   1.0000   1.0000   0.0810  -0.0000
    -0.0000  -0.0000  -0.0000

          k =-0.3000 0.5000-0.3000 (  1935 PWs)   bands (ev):

    -5.2622  -5.2040  -5.1784  -5.0045  -4.9374   2.6144   9.6177  16.8813
    16.9861  20.4715  23.5232

     occupation numbers 
     1.0000   1.0000   1.0000   1.0000   1.0000   1.0000   1.0000  -0.0000
    -0.0000  -0.0000  -0.0000

          k = 0.6000-0.4000 0.6000 (  1942 PWs)   bands (ev):

    -5.2603  -5.2185  -5.1920  -4.9564  -4.9194   3.7229   7.8191  16.2387
    17.1237  20.4101  23.1376

     occupation numbers 
     1.0000   1.0000   1.0000   1.0000   1.0000   1.0000   1.0000  -0.0000
    -0.0000  -0.0000  -0.0000

          k = 0.5000-0.3000 0.5000 (  1941 PWs)   bands (ev):

    -5.2514  -5.2188  -5.1930  -4.9495  -4.9430   3.4259   8.2586  15.8930
    17.6395  20.7571  22.7802

     occupation numbers 
     1.0000   1.0000   1.0000   1.0000   1.0000   1.0000   1.0000  -0.0000
    -0.0000  -0.0000  -0.0000

          k = 0.4000-0.2000 0.4000 (  1942 PWs)   bands (ev):

    -5.2426  -5.2038  -5.1806  -5.0158  -4.9677   2.1910  10.4598  15.9095
    18.4555  21.4673  22.6353

     occupation numbers 
     1.0000   1.0000   1.0000   1.0000   1.0000   1.0000   1.0054  -0.0000
    -0.0000  -0.0000  -0.0000

          k = 0.3000-0.1000 0.3000 (  1940 PWs)   bands (ev):

    -5.2393  -5.1873  -5.1698  -5.0816  -5.0136   1.0928  13.2854  16.3125
    19.3371  22.1930  22.9657

     occupation numbers 
     1.0000   1.0000   1.0000   1.0000   1.0000   1.0000  -0.0071  -0.0000
    -0.0000  -0.0000  -0.0000

          k = 0.2000 0.0000 0.2000 (  1945 PWs)   bands (ev):

    -5.2386  -5.1961  -5.1918  -5.0906  -5.0523   0.3561  16.0999  17.3466
    19.7789  22.0147  24.1662

     occupation numbers 
     1.0000   1.0000   1.0000   1.0000   1.0000   1.0000  -0.0000  -0.0000
    -0.0000  -0.0000  -0.0000

          k = 0.0000 0.4000 0.0000 (  1956 PWs)   bands (ev):

    -5.2975  -5.1478  -5.1169  -5.1169  -5.0250   0.8924  15.7301  16.8078
    16.8078  20.0956  20.9435

     occupation numbers 
     1.0000   1.0000   1.0000   1.0000   1.0000   1.0000  -0.0000  -0.0000
    -0.0000  -0.0000  -0.0000

          k =-0.1000 0.5000-0.1000 (  1946 PWs)   bands (ev):

    -5.3110  -5.1815  -5.0898  -5.0682  -4.9844   1.6236  13.3679  16.0583
    16.1254  19.7825  20.8990

     occupation numbers 
     1.0000   1.0000   1.0000   1.0000   1.0000   1.0000  -0.0046  -0.0000
    -0.0000  -0.0000  -0.0000

          k =-0.2000 0.6000-0.2000 (  1936 PWs)   bands (ev):

    -5.3020  -5.1944  -5.0999  -5.0376  -4.9316   2.7003  10.7852  14.9354
    15.8339  19.3402  22.9070

     occupation numbers 
     1.0000   1.0000   1.0000   1.0000   1.0000   1.0000   1.0213  -0.0000
    -0.0000  -0.0000  -0.0000

          k = 0.7000-0.3000 0.7000 (  1940 PWs)   bands (ev):

    -5.2868  -5.1818  -5.1169  -5.0215  -4.9149   3.8715   8.7757  13.9404
    15.9795  19.3125  25.2143

     occupation numbers 
     1.0000   1.0000   1.0000   1.0000   1.0000   1.0000   1.0000  -0.0001
    -0.0000  -0.0000  -0.0000

          k = 0.6000-0.2000 0.6000 (  1941 PWs)   bands (ev):

    -5.2649  -5.1730  -5.1265  -5.0056  -4.9486   4.1192   8.4397  13.2956
    16.5638  19.6516  24.9223

     occupation numbers 
     1.0000   1.0000   1.0000   1.0000   1.0000   1.0000   1.0000  -0.0067
    -0.0000  -0.0000  -0.0000

          k = 0.5000-0.1000 0.5000 (  1940 PWs)   bands (ev):

    -5.2344  -5.1890  -5.1229  -5.0211  -4.9891   3.0837  10.1042  13.1265
    17.5233  20.3482  24.5094

     occupation numbers 
     1.0000   1.0000   1.0000   1.0000   1.0000   1.0000   1.0006  -0.0143
    -0.0000  -0.0000  -0.0000

          k = 0.4000 0.0000 0.4000 (  1947 PWs)   bands (ev):

    -5.2187  -5.2035  -5.1068  -5.1047  -4.9883   1.9410  12.1715  13.8526
    18.6536  21.4043  23.8190

     occupation numbers 
     1.0000   1.0000   1.0000   1.0000   1.0000   1.0000   0.1898  -0.0002
    -0.0000  -0.0000  -0.0000

          k = 0.0000 0.6000 0.0000 (  1960 PWs)   bands (ev):

    -5.3557  -5.2259  -5.0089  -5.0089  -4.9820   2.2163  12.9161  15.3043
    15.3043  18.7942  19.2930

     occupation numbers 
     1.0000   1.0000   1.0000   1.0000   1.0000   1.0000  -0.0279  -0.0000
    -0.0000  -0.0000  -0.0000

          k =-0.1000 0.7000-0.1000 (  1945 PWs)   bands (ev):

    -5.3624  -5.2514  -5.0062  -4.9746  -4.9293   3.1582  11.2315  13.9814
    14.8879  18.5153  20.0856

     occupation numbers 
     1.0000   1.0000   1.0000   1.0000   1.0000   1.0000   1.0232  -0.0001
    -0.0000  -0.0000  -0.0000

          k = 0.8000-0.2000 0.8000 (  1934 PWs)   bands (ev):

    -5.3386  -5.2310  -5.0234  -4.9853  -4.9077   4.2571   9.6955  12.3332
    14.9327  18.5288  22.3548

     occupation numbers 
     1.0000   1.0000   1.0000   1.0000   1.0000   1.0000   1.0000   0.0639
    -0.0000  -0.0000  -0.0000

          k = 0.7000-0.1000 0.7000 (  1930 PWs)   bands (ev):

    -5.3081  -5.1567  -5.0414  -5.0364  -4.9382   4.7998   9.1998  11.1438
    15.4431  18.8220  25.1681

     occupation numbers 
     1.0000   1.0000   1.0000   1.0000   1.0000   1.0000   1.0000   1.0331
    -0.0000  -0.0000  -0.0000

          k = 0.6000-0.0000 0.6000 (  1933 PWs)   bands (ev):

    -5.2712  -5.1162  -5.0651  -5.0589  -4.9964   4.1345  10.0188  10.9896
    16.3615  19.4243  26.6875

     occupation numbers 
     1.0000   1.0000   1.0000   1.0000   1.0000   1.0000   1.0003   1.0338
    -0.0000  -0.0000  -0.0000

          k = 0.0000 0.8000 0.0000 (  1944 PWs)   bands (ev):

    -5.4022  -5.2949  -4.9468  -4.9179  -4.9179   3.9447  10.0968  14.3289
    14.3289  17.7095  18.8188

     occupation numbers 
     1.0000   1.0000   1.0000   1.0000   1.0000   1.0000   1.0006  -0.0000
    -0.0000  -0.0000  -0.0000

          k = 0.9000-0.1000 0.9000 (  1940 PWs)   bands (ev):

    -5.3940  -5.2993  -4.9530  -4.9124  -4.8948   4.8430   9.0621  12.9973
    14.2351  17.9519  19.7064

     occupation numbers 
     1.0000   1.0000   1.0000   1.0000   1.0000   1.0000   1.0000  -0.0224
    -0.0000  -0.0000  -0.0000

          k = 0.8000 0.0000 0.8000 (  1930 PWs)   bands (ev):

    -5.3535  -5.2479  -4.9791  -4.9614  -4.9131   5.2143   9.0985  11.2227
    14.6222  18.2856  22.1571

     occupation numbers 
     1.0000   1.0000   1.0000   1.0000   1.0000   1.0000   1.0000   1.0246
    -0.0000  -0.0000  -0.0000

          k = 0.0000-1.0000 0.0000 (  1964 PWs)   bands (ev):

    -5.4201  -5.3224  -4.9334  -4.8824  -4.8824   5.2162   8.4287  13.9920
    13.9920  17.3859  18.6630

     occupation numbers 
     1.0000   1.0000   1.0000   1.0000   1.0000   1.0000   1.0000  -0.0001
    -0.0001  -0.0000  -0.0000

          k =-0.2000 0.4000 0.0000 (  1951 PWs)   bands (ev):

    -5.2693  -5.1688  -5.1206  -5.1161  -5.0068   1.1593  14.0075  15.5996
    18.2437  21.6078  21.6805

     occupation numbers 
     1.0000   1.0000   1.0000   1.0000   1.0000   1.0000  -0.0001  -0.0000
    -0.0000  -0.0000  -0.0000

          k =-0.3000 0.5000-0.1000 (  1943 PWs)   bands (ev):

    -5.2590  -5.1915  -5.1277  -5.0604  -4.9674   2.1346  11.5576  14.6499
    17.3243  21.0619  23.0704

     occupation numbers 
     1.0000   1.0000   1.0000   1.0000   1.0000   1.0000   0.8716  -0.0000
    -0.0000  -0.0000  -0.0000

          k = 0.6000-0.4000 0.8000 (  1935 PWs)   bands (ev):

    -5.2459  -5.2148  -5.1338  -5.0135  -4.9382   3.3450   9.2208  14.3899
    16.4217  20.7611  23.1835

     occupation numbers 
     1.0000   1.0000   1.0000   1.0000   1.0000   1.0000   1.0000  -0.0000
    -0.0000  -0.0000  -0.0000

          k = 0.5000-0.3000 0.7000 (  1936 PWs)   bands (ev):

    -5.2336  -5.2325  -5.1345  -4.9948  -4.9282   4.1004   8.0747  14.3626
    16.0457  20.6689  22.9930

     occupation numbers 
     1.0000   1.0000   1.0000   1.0000   1.0000   1.0000   1.0000  -0.0000
    -0.0000  -0.0000  -0.0000

          k =-0.2000 0.6000 0.0000 (  1950 PWs)   bands (ev):

    -5.3182  -5.2105  -5.0754  -5.0115  -4.9568   2.4631  12.0983  14.1734
    15.5691  20.0779  20.7817

     occupation numbers 
     1.0000   1.0000   1.0000   1.0000   1.0000   1.0000   0.2640  -0.0000
    -0.0000  -0.0000  -0.0000

          k = 0.7000-0.3000 0.9000 (  1936 PWs)   bands (ev):

    -5.2951  -5.2137  -5.0849  -4.9931  -4.9316   3.5742  10.2913  13.1009
    14.7335  20.1892  22.6694

     occupation numbers 
     1.0000   1.0000   1.0000   1.0000   1.0000   1.0000   1.0021  -0.0158
    -0.0000  -0.0000  -0.0000

          k = 0.6000-0.2000 0.8000 (  1940 PWs)   bands (ev):

    -5.2719  -5.1839  -5.0823  -5.0322  -4.9226   4.5151   8.9464  12.3631
    14.6244  20.3855  24.4140

     occupation numbers 
     1.0000   1.0000   1.0000   1.0000   1.0000   1.0000   1.0000   0.0468
    -0.0000  -0.0000  -0.0000

          k = 0.5000-0.1000 0.7000 (  1939 PWs)   bands (ev):

    -5.2474  -5.1801  -5.0858  -5.0379  -4.9525   4.2452   9.3761  11.9490
    15.1896  20.8523  24.0744

     occupation numbers 
     1.0000   1.0000   1.0000   1.0000   1.0000   1.0000   1.0000   0.4387
    -0.0000  -0.0000  -0.0000

          k = 0.4000 0.0000 0.6000 (  1936 PWs)   bands (ev):

    -5.2203  -5.2179  -5.1099  -5.0153  -4.9825   3.1587  10.8134  12.4329
    16.1980  21.4411  23.6075

     occupation numbers 
     1.0000   1.0000   1.0000   1.0000   1.0000   1.0000   1.0232   0.0142
    -0.0000  -0.0000  -0.0000

          k = 0.8000-0.2000 1.0000 (  1945 PWs)   bands (ev):

    -5.3584  -5.2694  -5.0041  -4.9314  -4.9187   4.1200  10.0876  13.2537
    13.6973  19.2555  20.2462

     occupation numbers 
     1.0000   1.0000   1.0000   1.0000   1.0000   1.0000   1.0005  -0.0082
    -0.0006  -0.0000  -0.0000

          k = 0.7000-0.1000 0.9000 (  1932 PWs)   bands (ev):

    -5.3203  -5.2407  -5.0251  -4.9774  -4.8995   4.9835   9.4291  11.5760
    13.5936  19.7734  22.3166

     occupation numbers 
     1.0000   1.0000   1.0000   1.0000   1.0000   1.0000   1.0000   0.8564
    -0.0012  -0.0000  -0.0000

          k = 0.6000 0.0000 0.8000 (  1937 PWs)   bands (ev):

    -5.2840  -5.1572  -5.0846  -5.0240  -4.9223   5.0007  10.0558  10.1888
    14.1760  20.2396  25.1971

     occupation numbers 
     1.0000   1.0000   1.0000   1.0000   1.0000   1.0000   1.0004   1.0011
    -0.0000  -0.0000  -0.0000

          k =-0.2000-1.0000 0.0000 (  1948 PWs)   bands (ev):

    -5.3737  -5.2938  -4.9576  -4.9395  -4.8824   5.2546   8.7657  12.9360
    13.1169  18.9971  20.0667

     occupation numbers 
     1.0000   1.0000   1.0000   1.0000   1.0000   1.0000   1.0000  -0.0266
    -0.0148  -0.0000  -0.0000

          k = 0.6000-0.2000 1.0000 (  1928 PWs)   bands (ev):

    -5.2394  -5.2272  -5.1013  -4.9935  -4.9207   4.5576   9.9968  11.5212
    13.4738  21.9517  23.0527

     occupation numbers 
     1.0000   1.0000   1.0000   1.0000   1.0000   1.0000   1.0003   0.8994
    -0.0026  -0.0000  -0.0000

          k = 0.5000-0.1000 0.9000 (  1932 PWs)   bands (ev):

    -5.2338  -5.1776  -5.1320  -5.0250  -4.9005   5.0775   9.7481  10.9901
    12.9706  22.2633  23.9743

     occupation numbers 
     1.0000   1.0000   1.0000   1.0000   1.0000   1.0000   1.0000   1.0338
    -0.0243  -0.0000  -0.0000

          k =-0.4000-1.0000 0.0000 (  1930 PWs)   bands (ev):

    -5.2479  -5.2351  -5.0825  -5.0094  -4.8823   5.3204   9.7326  11.2069
    12.2309  22.0180  22.8566

     occupation numbers 
     1.0000   1.0000   1.0000   1.0000   1.0000   1.0000   1.0000   1.0269
     0.1371  -0.0000  -0.0000

     the Fermi energy is    11.8996 ev

!    total energy              =    -135.43526477 Ry
     Harris-Foulkes estimate   =    -135.43526477 Ry
     estimated scf accuracy    <          6.2E-10 Ry

     The total energy is the sum of the following terms:

     one-electron contribution =     -31.47392725 Ry
     hartree contribution      =      26.10223674 Ry
     xc contribution           =     -32.62485617 Ry
     ewald contribution        =     -97.43857717 Ry
     smearing contrib. (-TS)   =      -0.00014094 Ry

     convergence has been achieved in   6 iterations

     Forces acting on atoms (cartesian axes, Ry/au):

     atom    1 type  1   force =     0.00000000    0.00000000    0.00000000
     The non-local contrib.  to forces
     atom    1 type  1   force =    -0.00000000   -0.00000000   -0.00000000
     The ionic contribution  to forces
     atom    1 type  1   force =    -0.00000000   -0.00000000   -0.00000000
     The local contribution  to forces
     atom    1 type  1   force =    -0.00000000    0.00000000    0.00000000
     The core correction contribution to forces
     atom    1 type  1   force =     0.00000000    0.00000000   -0.00000000
     The Hubbard contrib.    to forces
     atom    1 type  1   force =     0.00000000    0.00000000    0.00000000
     The SCF correction term to forces
     atom    1 type  1   force =    -0.00000000    0.00000000    0.00000000

     Total force =     0.000000     Total SCF correction =     0.000000


     Computing stress (Cartesian axis) and pressure

          total   stress  (Ry/bohr**3)                   (kbar)     P=   42.18
   0.00028673  -0.00000000  -0.00000000         42.18     -0.00     -0.00
  -0.00000000   0.00028673   0.00000000         -0.00     42.18      0.00
  -0.00000000   0.00000000   0.00028673         -0.00      0.00     42.18

     kinetic stress (kbar)  31891.70      0.00      0.00
                                0.00  31891.70     -0.00
                                0.00     -0.00  31891.70

     local   stress (kbar)   4054.47      0.00      0.00
                                0.00   4054.47     -0.00
                                0.00     -0.00   4054.47

     nonloc. stress (kbar) -12825.04      0.00      0.00
                                0.00 -12825.04     -0.00
                                0.00     -0.00 -12825.04

     hartree stress (kbar)   6526.64     -0.00     -0.00
                               -0.00   6526.64      0.00
                               -0.00      0.00   6526.64

     exc-cor stress (kbar)   7337.14      0.00     -0.00
                                0.00   7337.14      0.00
                               -0.00      0.00   7337.14

     corecor stress (kbar) -12579.05      0.00     -0.00
                                0.00 -12579.05      0.00
                               -0.00      0.00 -12579.05

     ewald   stress (kbar) -24363.69      0.00     -0.00
                                0.00 -24363.69     -0.00
                               -0.00     -0.00 -24363.69

     hubbard stress (kbar)      0.00      0.00      0.00
                                0.00      0.00      0.00
                                0.00      0.00      0.00

     london  stress (kbar)      0.00      0.00      0.00
                                0.00      0.00      0.00
                                0.00      0.00      0.00

     DFT-D3  stress (kbar)      0.00      0.00      0.00
                                0.00      0.00      0.00
                                0.00      0.00      0.00

     XDM     stress (kbar)      0.00      0.00      0.00
                                0.00      0.00      0.00
                                0.00      0.00      0.00

     dft-nl  stress (kbar)      0.00      0.00      0.00
                                0.00      0.00      0.00
                                0.00      0.00      0.00

     TS-vdW  stress (kbar)      0.00      0.00      0.00
                                0.00      0.00      0.00
                                0.00      0.00      0.00



     BFGS Geometry Optimization

     number of scf cycles    =   1
     number of bfgs steps    =   0

     enthalpy new            =    -135.4352647718 Ry

     new trust radius        =       0.0200768680 bohr
     new conv_thr            =       0.0000000010 Ry

     new unit-cell volume =    200.35512 a.u.^3 (    29.68957 Ang^3 )
     density =     11.58871 g/cm^3

CELL_PARAMETERS (alat=  9.22255838)
  -0.503584172   0.000000000   0.503584172
  -0.000000000   0.503584172   0.503584172
  -0.503584172   0.503584172   0.000000000

ATOMIC_POSITIONS (crystal)
Pb       0.000000000   0.000000000   0.000000000



     Writing output data file Pb.save/
     NEW-OLD atomic charge density approx. for the potential
     extrapolated charge   14.29676, renormalised to   14.00000

     total cpu time spent up to now is       38.8 secs

     Self-consistent Calculation

     iteration #  1     ecut=    70.00 Ry     beta= 0.70
     Davidson diagonalization with overlap
     ethr =  1.00E-06,  avg # of iterations =  3.4

     total cpu time spent up to now is       43.6 secs

     total energy              =    -135.41652895 Ry
     Harris-Foulkes estimate   =    -134.79127843 Ry
     estimated scf accuracy    <       0.01067767 Ry

     iteration #  2     ecut=    70.00 Ry     beta= 0.70
     Davidson diagonalization with overlap
     ethr =  7.63E-05,  avg # of iterations =  3.0

     total cpu time spent up to now is       48.0 secs

     total energy              =    -135.43664062 Ry
     Harris-Foulkes estimate   =    -135.44542860 Ry
     estimated scf accuracy    <       0.01909445 Ry

     iteration #  3     ecut=    70.00 Ry     beta= 0.70
     Davidson diagonalization with overlap
     ethr =  7.63E-05,  avg # of iterations =  2.0

     total cpu time spent up to now is       51.1 secs

     total energy              =    -135.43677899 Ry
     Harris-Foulkes estimate   =    -135.43797683 Ry
     estimated scf accuracy    <       0.00375014 Ry

     iteration #  4     ecut=    70.00 Ry     beta= 0.70
     Davidson diagonalization with overlap
     ethr =  2.68E-05,  avg # of iterations =  1.0

     total cpu time spent up to now is       53.9 secs

     total energy              =    -135.43638714 Ry
     Harris-Foulkes estimate   =    -135.43694278 Ry
     estimated scf accuracy    <       0.00150645 Ry

     iteration #  5     ecut=    70.00 Ry     beta= 0.70
     Davidson diagonalization with overlap
     ethr =  1.08E-05,  avg # of iterations =  1.0

     total cpu time spent up to now is       56.5 secs

     total energy              =    -135.43639958 Ry
     Harris-Foulkes estimate   =    -135.43648057 Ry
     estimated scf accuracy    <       0.00044079 Ry

     iteration #  6     ecut=    70.00 Ry     beta= 0.70
     Davidson diagonalization with overlap
     ethr =  3.15E-06,  avg # of iterations =  1.2

     total cpu time spent up to now is       59.5 secs

     total energy              =    -135.43643452 Ry
     Harris-Foulkes estimate   =    -135.43641108 Ry
     estimated scf accuracy    <       0.00027095 Ry

     iteration #  7     ecut=    70.00 Ry     beta= 0.70
     Davidson diagonalization with overlap
     ethr =  1.94E-06,  avg # of iterations =  1.0

     total cpu time spent up to now is       62.1 secs

     total energy              =    -135.43649229 Ry
     Harris-Foulkes estimate   =    -135.43643555 Ry
     estimated scf accuracy    <       0.00030825 Ry

     iteration #  8     ecut=    70.00 Ry     beta= 0.70
     Davidson diagonalization with overlap
     ethr =  1.94E-06,  avg # of iterations =  1.0

     total cpu time spent up to now is       64.6 secs

     total energy              =    -135.43621897 Ry
     Harris-Foulkes estimate   =    -135.43649466 Ry
     estimated scf accuracy    <       0.00042907 Ry

     iteration #  9     ecut=    70.00 Ry     beta= 0.70
     Davidson diagonalization with overlap
     ethr =  1.94E-06,  avg # of iterations =  2.0

     total cpu time spent up to now is       67.6 secs

     total energy              =    -135.43628629 Ry
     Harris-Foulkes estimate   =    -135.43629210 Ry
     estimated scf accuracy    <       0.00000814 Ry

     iteration # 10     ecut=    70.00 Ry     beta= 0.70
     Davidson diagonalization with overlap
     ethr =  5.82E-08,  avg # of iterations =  2.5

     total cpu time spent up to now is       70.8 secs

     total energy              =    -135.43629074 Ry
     Harris-Foulkes estimate   =    -135.43629071 Ry
     estimated scf accuracy    <       0.00000276 Ry

     iteration # 11     ecut=    70.00 Ry     beta= 0.70
     Davidson diagonalization with overlap
     ethr =  1.97E-08,  avg # of iterations =  1.0

     total cpu time spent up to now is       73.7 secs

     total energy              =    -135.43629058 Ry
     Harris-Foulkes estimate   =    -135.43629074 Ry
     estimated scf accuracy    <       0.00000288 Ry

     iteration # 12     ecut=    70.00 Ry     beta= 0.70
     Davidson diagonalization with overlap
     ethr =  1.97E-08,  avg # of iterations =  1.0

     total cpu time spent up to now is       76.4 secs

     total energy              =    -135.43628877 Ry
     Harris-Foulkes estimate   =    -135.43629058 Ry
     estimated scf accuracy    <       0.00000251 Ry

     iteration # 13     ecut=    70.00 Ry     beta= 0.70
     Davidson diagonalization with overlap
     ethr =  1.79E-08,  avg # of iterations =  2.0

     total cpu time spent up to now is       79.8 secs

     total energy              =    -135.43628955 Ry
     Harris-Foulkes estimate   =    -135.43628979 Ry
     estimated scf accuracy    <       0.00000038 Ry

     iteration # 14     ecut=    70.00 Ry     beta= 0.70
     Davidson diagonalization with overlap
     ethr =  2.69E-09,  avg # of iterations =  2.0

     total cpu time spent up to now is       83.7 secs

     total energy              =    -135.43628963 Ry
     Harris-Foulkes estimate   =    -135.43628963 Ry
     estimated scf accuracy    <          2.9E-09 Ry

     iteration # 15     ecut=    70.00 Ry     beta= 0.70
     Davidson diagonalization with overlap
     ethr =  2.09E-11,  avg # of iterations =  2.0

     total cpu time spent up to now is       87.1 secs

     total energy              =    -135.43628962 Ry
     Harris-Foulkes estimate   =    -135.43628963 Ry
     estimated scf accuracy    <       0.00000002 Ry

     iteration # 16     ecut=    70.00 Ry     beta= 0.70
     Davidson diagonalization with overlap
     ethr =  2.09E-11,  avg # of iterations =  2.2

     total cpu time spent up to now is       90.3 secs

     total energy              =    -135.43628963 Ry
     Harris-Foulkes estimate   =    -135.43628963 Ry
     estimated scf accuracy    <          1.4E-09 Ry

     iteration # 17     ecut=    70.00 Ry     beta= 0.70
     Davidson diagonalization with overlap
     ethr =  9.81E-12,  avg # of iterations =  2.0

     total cpu time spent up to now is       93.4 secs

     total energy              =    -135.43628963 Ry
     Harris-Foulkes estimate   =    -135.43628964 Ry
     estimated scf accuracy    <       0.00000002 Ry

     iteration # 18     ecut=    70.00 Ry     beta= 0.70
     Davidson diagonalization with overlap
     ethr =  9.81E-12,  avg # of iterations =  1.1

     total cpu time spent up to now is       95.9 secs

     total energy              =    -135.43628965 Ry
     Harris-Foulkes estimate   =    -135.43628963 Ry
     estimated scf accuracy    <       0.00000001 Ry

     iteration # 19     ecut=    70.00 Ry     beta= 0.70
     Davidson diagonalization with overlap
     ethr =  9.81E-12,  avg # of iterations =  2.3

     total cpu time spent up to now is       99.1 secs

     total energy              =    -135.43628962 Ry
     Harris-Foulkes estimate   =    -135.43628965 Ry
     estimated scf accuracy    <       0.00000005 Ry

     iteration # 20     ecut=    70.00 Ry     beta= 0.70
     Davidson diagonalization with overlap
     ethr =  9.81E-12,  avg # of iterations =  2.8

     total cpu time spent up to now is      102.3 secs

     total energy              =    -135.43628963 Ry
     Harris-Foulkes estimate   =    -135.43628963 Ry
     estimated scf accuracy    <          2.1E-09 Ry

     iteration # 21     ecut=    70.00 Ry     beta= 0.70
     Davidson diagonalization with overlap
     ethr =  9.81E-12,  avg # of iterations =  2.0

     total cpu time spent up to now is      105.3 secs

     End of self-consistent calculation

          k = 0.0000 0.0000 0.0000 (  1917 PWs)   bands (ev):

    -5.5480  -5.5480  -5.5480  -5.3989  -5.3989  -0.3640  19.1344  19.1344
    19.1344  21.6211  23.1420

     occupation numbers 
     1.0000   1.0000   1.0000   1.0000   1.0000   1.0000  -0.0000  -0.0000
    -0.0000  -0.0000  -0.0000

          k =-0.0993 0.0993-0.0993 (  1940 PWs)   bands (ev):

    -5.5488  -5.5336  -5.5336  -5.3996  -5.3996  -0.1672  17.0619  18.8902
    18.8902  21.2205  23.9873

     occupation numbers 
     1.0000   1.0000   1.0000   1.0000   1.0000   1.0000  -0.0000  -0.0000
    -0.0000  -0.0000  -0.0000

          k =-0.1986 0.1986-0.1986 (  1943 PWs)   bands (ev):

    -5.5536  -5.5116  -5.5116  -5.3841  -5.3841   0.4238  13.8681  18.3518
    18.3518  20.8443  24.0301

     occupation numbers 
     1.0000   1.0000   1.0000   1.0000   1.0000   1.0000  -0.0000  -0.0000
    -0.0000  -0.0000  -0.0000

          k =-0.2979 0.2979-0.2979 (  1934 PWs)   bands (ev):

    -5.5644  -5.5155  -5.5155  -5.3325  -5.3325   1.3908  10.8839  17.7990
    17.7990  20.6829  22.7303

     occupation numbers 
     1.0000   1.0000   1.0000   1.0000   1.0000   1.0000   1.0243  -0.0000
    -0.0000  -0.0000  -0.0000

          k =-0.3972 0.3972-0.3972 (  1937 PWs)   bands (ev):

    -5.5767  -5.5302  -5.5302  -5.2783  -5.2783   2.6088   8.4218  17.4025
    17.4025  20.7617  21.7615

     occupation numbers 
     1.0000   1.0000   1.0000   1.0000   1.0000   1.0000   1.0000  -0.0000
    -0.0000  -0.0000  -0.0000

          k = 0.4964-0.4964 0.4964 (  1946 PWs)   bands (ev):

    -5.5824  -5.5369  -5.5369  -5.2562  -5.2562   3.3870   7.2248  17.2592
    17.2592  21.0311  21.1961

     occupation numbers 
     1.0000   1.0000   1.0000   1.0000   1.0000   1.0000   1.0000  -0.0000
    -0.0000  -0.0000  -0.0000

          k = 0.0000 0.1986 0.0000 (  1941 PWs)   bands (ev):

    -5.5651  -5.5187  -5.5187  -5.4168  -5.3866  -0.1017  17.6837  18.1019
    18.1019  20.8012  23.6510

     occupation numbers 
     1.0000   1.0000   1.0000   1.0000   1.0000   1.0000  -0.0000  -0.0000
    -0.0000  -0.0000  -0.0000

          k =-0.0993 0.2979-0.0993 (  1945 PWs)   bands (ev):

    -5.5739  -5.4930  -5.4892  -5.4263  -5.3675   0.3579  14.9501  17.3317
    17.8735  20.9136  22.3667

     occupation numbers 
     1.0000   1.0000   1.0000   1.0000   1.0000   1.0000  -0.0000  -0.0000
    -0.0000  -0.0000  -0.0000

          k =-0.1986 0.3972-0.1986 (  1944 PWs)   bands (ev):

    -5.5742  -5.5007  -5.4836  -5.3912  -5.3210   1.2017  11.9413  16.7825
    17.1979  20.5685  22.7550

     occupation numbers 
     1.0000   1.0000   1.0000   1.0000   1.0000   1.0000   0.0976  -0.0000
    -0.0000  -0.0000  -0.0000

          k =-0.2979 0.4964-0.2979 (  1935 PWs)   bands (ev):

    -5.5744  -5.5211  -5.4976  -5.3340  -5.2715   2.3551   9.3172  16.4305
    16.5500  20.0844  22.9860

     occupation numbers 
     1.0000   1.0000   1.0000   1.0000   1.0000   1.0000   1.0000  -0.0000
    -0.0000  -0.0000  -0.0000

          k = 0.5957-0.3972 0.5957 (  1942 PWs)   bands (ev):

    -5.5719  -5.5346  -5.5103  -5.2890  -5.2545   3.4129   7.5814  15.8070
    16.6833  20.0261  22.6053

     occupation numbers 
     1.0000   1.0000   1.0000   1.0000   1.0000   1.0000   1.0000  -0.0000
    -0.0000  -0.0000  -0.0000

          k = 0.4964-0.2979 0.4964 (  1941 PWs)   bands (ev):

    -5.5633  -5.5352  -5.5112  -5.2828  -5.2764   3.1323   8.0020  15.4728
    17.1830  20.3727  22.2604

     occupation numbers 
     1.0000   1.0000   1.0000   1.0000   1.0000   1.0000   1.0000  -0.0000
    -0.0000  -0.0000  -0.0000

          k = 0.3972-0.1986 0.3972 (  1942 PWs)   bands (ev):

    -5.5559  -5.5214  -5.4997  -5.3450  -5.2996   1.9459  10.1374  15.4923
    17.9716  21.0786  22.1306

     occupation numbers 
     1.0000   1.0000   1.0000   1.0000   1.0000   1.0000   1.0059  -0.0000
    -0.0000  -0.0000  -0.0000

          k = 0.2979-0.0993 0.2979 (  1940 PWs)   bands (ev):

    -5.5539  -5.5058  -5.4897  -5.4068  -5.3428   0.8795  12.8985  15.8920
    18.8211  21.7703  22.5162

     occupation numbers 
     1.0000   1.0000   1.0000   1.0000   1.0000   1.0000  -0.0088  -0.0000
    -0.0000  -0.0000  -0.0000

          k = 0.1986 0.0000 0.1986 (  1945 PWs)   bands (ev):

    -5.5539  -5.5144  -5.5102  -5.4155  -5.3796   0.1612  15.6500  16.9127
    19.2517  21.6043  23.7157

     occupation numbers 
     1.0000   1.0000   1.0000   1.0000   1.0000   1.0000  -0.0000  -0.0000
    -0.0000  -0.0000  -0.0000

          k = 0.0000 0.3972 0.0000 (  1956 PWs)   bands (ev):

    -5.6092  -5.4686  -5.4398  -5.4398  -5.3541   0.6850  15.2515  16.3784
    16.3784  19.7022  20.5454

     occupation numbers 
     1.0000   1.0000   1.0000   1.0000   1.0000   1.0000  -0.0000  -0.0000
    -0.0000  -0.0000  -0.0000

          k =-0.0993 0.4964-0.0993 (  1946 PWs)   bands (ev):

    -5.6216  -5.4999  -5.4144  -5.3937  -5.3157   1.3974  12.9637  15.6306
    15.7126  19.3914  20.4758

     occupation numbers 
     1.0000   1.0000   1.0000   1.0000   1.0000   1.0000  -0.0064  -0.0000
    -0.0000  -0.0000  -0.0000

          k =-0.1986 0.5957-0.1986 (  1936 PWs)   bands (ev):

    -5.6126  -5.5118  -5.4239  -5.3645  -5.2660   2.4418  10.4511  14.5304
    15.4281  18.9480  22.4392

     occupation numbers 
     1.0000   1.0000   1.0000   1.0000   1.0000   1.0000   1.0218  -0.0000
    -0.0000  -0.0000  -0.0000

          k = 0.6950-0.2979 0.6950 (  1940 PWs)   bands (ev):

    -5.5981  -5.4994  -5.4398  -5.3493  -5.2503   3.5652   8.5077  13.5573
    15.5697  18.9172  24.6825

     occupation numbers 
     1.0000   1.0000   1.0000   1.0000   1.0000   1.0000   1.0000  -0.0001
    -0.0000  -0.0000  -0.0000

          k = 0.5957-0.1986 0.5957 (  1941 PWs)   bands (ev):

    -5.5777  -5.4907  -5.4488  -5.3345  -5.2819   3.7987   8.1877  12.9283
    16.1379  19.2528  24.4048

     occupation numbers 
     1.0000   1.0000   1.0000   1.0000   1.0000   1.0000   1.0000  -0.0077
    -0.0000  -0.0000  -0.0000

          k = 0.4964-0.0993 0.4964 (  1940 PWs)   bands (ev):

    -5.5493  -5.5061  -5.4454  -5.3500  -5.3189   2.8105   9.7909  12.7684
    17.0695  19.9443  24.0154

     occupation numbers 
     1.0000   1.0000   1.0000   1.0000   1.0000   1.0000   1.0007  -0.0153
    -0.0000  -0.0000  -0.0000

          k = 0.3972 0.0000 0.3972 (  1947 PWs)   bands (ev):

    -5.5344  -5.5208  -5.4303  -5.4285  -5.3185   1.7046  11.7979  13.4910
    18.1626  20.9928  23.3658

     occupation numbers 
     1.0000   1.0000   1.0000   1.0000   1.0000   1.0000   0.2219  -0.0002
    -0.0000  -0.0000  -0.0000

          k = 0.0000 0.5957 0.0000 (  1960 PWs)   bands (ev):

    -5.6634  -5.5409  -5.3383  -5.3383  -5.3136   1.9748  12.5023  14.9120
    14.9120  18.4058  18.8932

     occupation numbers 
     1.0000   1.0000   1.0000   1.0000   1.0000   1.0000  -0.0322  -0.0000
    -0.0000  -0.0000  -0.0000

          k =-0.0993 0.6950-0.0993 (  1945 PWs)   bands (ev):

    -5.6694  -5.5645  -5.3360  -5.3058  -5.2639   2.8879  10.8690  13.6199
    14.5059  18.1168  19.6622

     occupation numbers 
     1.0000   1.0000   1.0000   1.0000   1.0000   1.0000   1.0265  -0.0001
    -0.0000  -0.0000  -0.0000

          k = 0.7943-0.1986 0.7943 (  1934 PWs)   bands (ev):

    -5.6468  -5.5453  -5.3520  -5.3155  -5.2435   3.9422   9.3939  11.9994
    14.5494  18.1269  21.8923

     occupation numbers 
     1.0000   1.0000   1.0000   1.0000   1.0000   1.0000   1.0000   0.0596
    -0.0000  -0.0000  -0.0000

          k = 0.6950-0.0993 0.6950 (  1930 PWs)   bands (ev):

    -5.6180  -5.4755  -5.3688  -5.3631  -5.2721   4.4529   8.9349  10.8282
    15.0463  18.4188  24.6684

     occupation numbers 
     1.0000   1.0000   1.0000   1.0000   1.0000   1.0000   1.0000   1.0312
    -0.0000  -0.0000  -0.0000

          k = 0.5957 0.0000 0.5957 (  1933 PWs)   bands (ev):

    -5.5836  -5.4378  -5.3910  -5.3839  -5.3267   3.8213   9.7110  10.6849
    15.9404  19.0203  26.1927

     occupation numbers 
     1.0000   1.0000   1.0000   1.0000   1.0000   1.0000   1.0004   1.0350
    -0.0000  -0.0000  -0.0000

          k = 0.0000 0.7943 0.0000 (  1944 PWs)   bands (ev):

    -5.7068  -5.6048  -5.2805  -5.2529  -5.2529   3.6473   9.7693  13.9610
    13.9610  17.3122  18.4151

     occupation numbers 
     1.0000   1.0000   1.0000   1.0000   1.0000   1.0000   1.0006  -0.0000
    -0.0000  -0.0000  -0.0000

          k = 0.8936-0.0993 0.8936 (  1940 PWs)   bands (ev):

    -5.6990  -5.6088  -5.2862  -5.2476  -5.2313   4.5016   8.7826  12.6587
    13.8695  17.5455  19.2836

     occupation numbers 
     1.0000   1.0000   1.0000   1.0000   1.0000   1.0000   1.0000  -0.0223
    -0.0000  -0.0000  -0.0000

          k = 0.7943 0.0000 0.7943 (  1930 PWs)   bands (ev):

    -5.6607  -5.5608  -5.3106  -5.2931  -5.2485   4.8473   8.8358  10.9182
    14.2465  17.8799  21.6961

     occupation numbers 
     1.0000   1.0000   1.0000   1.0000   1.0000   1.0000   1.0000   1.0179
    -0.0000  -0.0000  -0.0000

          k = 0.0000-0.9929 0.0000 (  1964 PWs)   bands (ev):

    -5.7235  -5.6303  -5.2679  -5.2197  -5.2197   4.8489   8.1823  13.6327
    13.6327  16.9840  18.2579

     occupation numbers 
     1.0000   1.0000   1.0000   1.0000   1.0000   1.0000   1.0000  -0.0001
    -0.0001  -0.0000  -0.0000

          k =-0.1986 0.3972 0.0000 (  1951 PWs)   bands (ev):

    -5.5825  -5.4885  -5.4433  -5.4388  -5.3366   0.9447  13.5924  15.2030
    17.7602  21.1829  21.2680

     occupation numbers 
     1.0000   1.0000   1.0000   1.0000   1.0000   1.0000  -0.0001  -0.0000
    -0.0000  -0.0000  -0.0000

          k =-0.2979 0.4964-0.0993 (  1943 PWs)   bands (ev):

    -5.5722  -5.5095  -5.4498  -5.3864  -5.2993   1.8928  11.2048  14.2618
    16.8778  20.6467  22.6020

     occupation numbers 
     1.0000   1.0000   1.0000   1.0000   1.0000   1.0000   0.8810  -0.0000
    -0.0000  -0.0000  -0.0000

          k = 0.5957-0.3972 0.7943 (  1935 PWs)   bands (ev):

    -5.5595  -5.5308  -5.4555  -5.3422  -5.2721   3.0606   8.9345  13.9986
    16.0053  20.3494  22.6869

     occupation numbers 
     1.0000   1.0000   1.0000   1.0000   1.0000   1.0000   1.0000  -0.0000
    -0.0000  -0.0000  -0.0000

          k = 0.4964-0.2979 0.6950 (  1936 PWs)   bands (ev):

    -5.5490  -5.5460  -5.4560  -5.3246  -5.2628   3.7769   7.8350  13.9677
    15.6424  20.2598  22.4946

     occupation numbers 
     1.0000   1.0000   1.0000   1.0000   1.0000   1.0000   1.0000  -0.0000
    -0.0000  -0.0000  -0.0000

          k =-0.1986 0.5957 0.0000 (  1950 PWs)   bands (ev):

    -5.6281  -5.5267  -5.4006  -5.3408  -5.2895   2.2134  11.7160  13.8061
    15.1713  19.6550  20.3576

     occupation numbers 
     1.0000   1.0000   1.0000   1.0000   1.0000   1.0000   0.3100  -0.0000
    -0.0000  -0.0000  -0.0000

          k = 0.6950-0.2979 0.8936 (  1936 PWs)   bands (ev):

    -5.6060  -5.5295  -5.4093  -5.3231  -5.2659   3.2865   9.9688  12.7442
    14.3603  19.7606  22.2070

     occupation numbers 
     1.0000   1.0000   1.0000   1.0000   1.0000   1.0000   1.0023  -0.0167
    -0.0000  -0.0000  -0.0000

          k = 0.5957-0.1986 0.7943 (  1940 PWs)   bands (ev):

    -5.5841  -5.5013  -5.4067  -5.3596  -5.2575   4.1815   8.6832  12.0152
    14.2531  19.9552  23.9150

     occupation numbers 
     1.0000   1.0000   1.0000   1.0000   1.0000   1.0000   1.0000   0.0507
    -0.0000  -0.0000  -0.0000

          k = 0.4964-0.0993 0.6950 (  1939 PWs)   bands (ev):

    -5.5613  -5.4977  -5.4098  -5.3649  -5.2855   3.9260   9.0945  11.6135
    14.8033  20.4171  23.5842

     occupation numbers 
     1.0000   1.0000   1.0000   1.0000   1.0000   1.0000   1.0000   0.4321
    -0.0000  -0.0000  -0.0000

          k = 0.3972 0.0000 0.5957 (  1936 PWs)   bands (ev):

    -5.5358  -5.5340  -5.4326  -5.3444  -5.3130   2.8846  10.4727  12.0992
    15.7868  20.9996  23.1503

     occupation numbers 
     1.0000   1.0000   1.0000   1.0000   1.0000   1.0000   1.0232   0.0114
    -0.0000  -0.0000  -0.0000

          k = 0.7943-0.1986 0.9929 (  1945 PWs)   bands (ev):

    -5.6655  -5.5811  -5.3337  -5.2657  -5.2537   3.8138   9.7640  12.9064
    13.3476  18.8252  19.8234

     occupation numbers 
     1.0000   1.0000   1.0000   1.0000   1.0000   1.0000   1.0006  -0.0085
    -0.0006  -0.0000  -0.0000

          k = 0.6950-0.0993 0.8936 (  1932 PWs)   bands (ev):

    -5.6295  -5.5542  -5.3531  -5.3086  -5.2357   4.6321   9.1482  11.2625
    13.2426  19.3395  21.8562

     occupation numbers 
     1.0000   1.0000   1.0000   1.0000   1.0000   1.0000   1.0000   0.8325
    -0.0013  -0.0000  -0.0000

          k = 0.5957 0.0000 0.7943 (  1937 PWs)   bands (ev):

    -5.5954  -5.4760  -5.4084  -5.3525  -5.2571   4.6457   9.7713   9.8971
    13.8114  19.8043  24.6944

     occupation numbers 
     1.0000   1.0000   1.0000   1.0000   1.0000   1.0000   1.0006   1.0015
    -0.0000  -0.0000  -0.0000

          k =-0.1986-0.9929 0.0000 (  1948 PWs)   bands (ev):

    -5.6799  -5.6036  -5.2905  -5.2729  -5.2197   4.8858   8.5109  12.5959
    12.7774  18.5645  19.6442

     occupation numbers 
     1.0000   1.0000   1.0000   1.0000   1.0000   1.0000   1.0000  -0.0265
    -0.0148  -0.0000  -0.0000

          k = 0.5957-0.1986 0.9929 (  1928 PWs)   bands (ev):

    -5.5536  -5.5421  -5.4241  -5.3236  -5.2555   4.2283   9.6903  11.2067
    13.1273  21.4773  22.6003

     occupation numbers 
     1.0000   1.0000   1.0000   1.0000   1.0000   1.0000   1.0004   0.8795
    -0.0026  -0.0000  -0.0000

          k = 0.4964-0.0993 0.8936 (  1932 PWs)   bands (ev):

    -5.5483  -5.4954  -5.4526  -5.3533  -5.2366   4.7190   9.4713  10.6783
    12.6349  21.7908  23.4934

     occupation numbers 
     1.0000   1.0000   1.0000   1.0000   1.0000   1.0000   1.0001   1.0348
    -0.0239  -0.0000  -0.0000

          k =-0.3972-0.9929 0.0000 (  1930 PWs)   bands (ev):

    -5.5616  -5.5490  -5.4065  -5.3387  -5.2196   4.9491   9.4556  10.8992
    11.9105  21.5317  22.4059

     occupation numbers 
     1.0000   1.0000   1.0000   1.0000   1.0000   1.0000   1.0001   1.0217
     0.1207  -0.0000  -0.0000

     the Fermi energy is    11.5587 ev

!    total energy              =    -135.43628963 Ry
     Harris-Foulkes estimate   =    -135.43628963 Ry
     estimated scf accuracy    <          1.3E-11 Ry

     The total energy is the sum of the following terms:

     one-electron contribution =     -32.54727710 Ry
     hartree contribution      =      26.46938154 Ry
     xc contribution           =     -32.61311569 Ry
     ewald contribution        =     -96.74507517 Ry
     smearing contrib. (-TS)   =      -0.00020320 Ry

     convergence has been achieved in  21 iterations

     Forces acting on atoms (cartesian axes, Ry/au):

     atom    1 type  1   force =     0.00000000    0.00000000    0.00000000
     The non-local contrib.  to forces
     atom    1 type  1   force =     0.00000000    0.00000000    0.00000000
     The ionic contribution  to forces
     atom    1 type  1   force =    -0.00000000   -0.00000000   -0.00000000
     The local contribution  to forces
     atom    1 type  1   force =     0.00000000    0.00000000   -0.00000000
     The core correction contribution to forces
     atom    1 type  1   force =     0.00000000    0.00000000   -0.00000000
     The Hubbard contrib.    to forces
     atom    1 type  1   force =     0.00000000    0.00000000    0.00000000
     The SCF correction term to forces
     atom    1 type  1   force =    -0.00000000    0.00000000   -0.00000000

     Total force =     0.000000     Total SCF correction =     0.000000


     Computing stress (Cartesian axis) and pressure

          total   stress  (Ry/bohr**3)                   (kbar)     P=   28.87
   0.00019624  -0.00000000  -0.00000000         28.87     -0.00     -0.00
  -0.00000000   0.00019624  -0.00000000         -0.00     28.87     -0.00
  -0.00000000  -0.00000000   0.00019624         -0.00     -0.00     28.87

     kinetic stress (kbar)  31210.49      0.00      0.00
                                0.00  31210.49      0.00
                                0.00     -0.00  31210.49

     local   stress (kbar)   3709.62      0.00     -0.00
                                0.00   3709.62      0.00
                               -0.00      0.00   3709.62

     nonloc. stress (kbar) -12563.48      0.00      0.00
                                0.00 -12563.48     -0.00
                                0.00     -0.00 -12563.48

     hartree stress (kbar)   6478.13     -0.00      0.00
                               -0.00   6478.13     -0.00
                                0.00     -0.00   6478.13

     exc-cor stress (kbar)   7183.88     -0.00     -0.00
                               -0.00   7183.88     -0.00
                               -0.00     -0.00   7183.88

     corecor stress (kbar) -12312.33      0.00      0.00
                                0.00 -12312.33     -0.00
                                0.00     -0.00 -12312.33

     ewald   stress (kbar) -23677.44     -0.00     -0.00
                               -0.00 -23677.44     -0.00
                               -0.00     -0.00 -23677.44

     hubbard stress (kbar)      0.00      0.00      0.00
                                0.00      0.00      0.00
[...]

    -6.3334  -6.2996  -6.2996  -6.0850  -6.0850   1.9493   7.7659  16.2847
    16.2847  19.6755  20.7040

     occupation numbers 
     1.0000   1.0000   1.0000   1.0000   1.0000   1.0000   1.0000  -0.0000
    -0.0000  -0.0000  -0.0000

          k = 0.4877-0.4877 0.4877 (  2060 PWs)   bands (ev):

    -6.3370  -6.3051  -6.3051  -6.0662  -6.0662   2.6298   6.6845  16.1522
    16.1522  19.9141  20.1671

     occupation numbers 
     1.0000   1.0000   1.0000   1.0000   1.0000   1.0000   1.0000  -0.0000
    -0.0000  -0.0000  -0.0000

          k = 0.0000 0.1951 0.0000 (  2077 PWs)   bands (ev):

    -6.3294  -6.2899  -6.2899  -6.2037  -6.1784  -0.5601  16.4626  16.9529
    16.9529  19.8756  22.4926

     occupation numbers 
     1.0000   1.0000   1.0000   1.0000   1.0000   1.0000  -0.0000  -0.0000
    -0.0000  -0.0000  -0.0000

          k =-0.0975 0.2926-0.0975 (  2083 PWs)   bands (ev):

    -6.3362  -6.2679  -6.2647  -6.2112  -6.1618  -0.1274  13.9094  16.2330
    16.7053  19.9087  21.3451

     occupation numbers 
     1.0000   1.0000   1.0000   1.0000   1.0000   1.0000  -0.0000  -0.0000
    -0.0000  -0.0000  -0.0000

          k =-0.1951 0.3901-0.1951 (  2079 PWs)   bands (ev):

    -6.3350  -6.2739  -6.2599  -6.1806  -6.1217   0.6617  11.0641  15.7164
    16.0656  19.5956  21.6053

     occupation numbers 
     1.0000   1.0000   1.0000   1.0000   1.0000   1.0000   0.1450  -0.0000
    -0.0000  -0.0000  -0.0000

          k =-0.2926 0.4877-0.2926 (  2089 PWs)   bands (ev):

    -6.3336  -6.2906  -6.2718  -6.1319  -6.0795   1.7247   8.5983  15.3461
    15.4973  19.1424  21.6927

     occupation numbers 
     1.0000   1.0000   1.0000   1.0000   1.0000   1.0000   1.0000  -0.0000
    -0.0000  -0.0000  -0.0000

          k = 0.5852-0.3901 0.5852 (  2092 PWs)   bands (ev):

    -6.3304  -6.3015  -6.2825  -6.0937  -6.0650   2.6640   7.0112  14.7674
    15.6198  19.0916  21.3224

     occupation numbers 
     1.0000   1.0000   1.0000   1.0000   1.0000   1.0000   1.0000  -0.0000
    -0.0000  -0.0000  -0.0000

          k = 0.4877-0.2926 0.4877 (  2084 PWs)   bands (ev):

    -6.3224  -6.3030  -6.2832  -6.0888  -6.0830   2.4205   7.3884  14.4606
    16.0810  19.4370  21.0064

     occupation numbers 
     1.0000   1.0000   1.0000   1.0000   1.0000   1.0000   1.0000  -0.0000
    -0.0000  -0.0000  -0.0000

          k = 0.3901-0.1951 0.3901 (  2080 PWs)   bands (ev):

    -6.3173  -6.2918  -6.2736  -6.1418  -6.1028   1.3501   9.3650  14.4871
    16.8046  20.1341  20.9083

     occupation numbers 
     1.0000   1.0000   1.0000   1.0000   1.0000   1.0000   1.0074  -0.0000
    -0.0000  -0.0000  -0.0000

          k = 0.2926-0.0975 0.2926 (  2081 PWs)   bands (ev):

    -6.3178  -6.2786  -6.2654  -6.1948  -6.1399   0.3609  11.9672  14.8783
    17.5794  20.7298  21.4336

     occupation numbers 
     1.0000   1.0000   1.0000   1.0000   1.0000   1.0000  -0.0144  -0.0000
    -0.0000  -0.0000  -0.0000

          k = 0.1951 0.0000 0.1951 (  2095 PWs)   bands (ev):

    -6.3192  -6.2866  -6.2825  -6.2027  -6.1720  -0.3126  14.5648  15.8632
    17.9817  20.6071  22.5561

     occupation numbers 
     1.0000   1.0000   1.0000   1.0000   1.0000   1.0000  -0.0000  -0.0000
    -0.0000  -0.0000  -0.0000

          k = 0.0000 0.3901 0.0000 (  2073 PWs)   bands (ev):

    -6.3661  -6.2464  -6.2222  -6.2222  -6.1504   0.1806  14.1046  15.3421
    15.3421  18.7515  19.5798

     occupation numbers 
     1.0000   1.0000   1.0000   1.0000   1.0000   1.0000  -0.0000  -0.0000
    -0.0000  -0.0000  -0.0000

          k =-0.0975 0.4877-0.0975 (  2074 PWs)   bands (ev):

    -6.3760  -6.2724  -6.2007  -6.1824  -6.1174   0.8471  11.9914  14.6045
    14.7166  18.4454  19.4543

     occupation numbers 
     1.0000   1.0000   1.0000   1.0000   1.0000   1.0000  -0.0131  -0.0000
    -0.0000  -0.0000  -0.0000

          k =-0.1951 0.5852-0.1951 (  2088 PWs)   bands (ev):

    -6.3674  -6.2820  -6.2090  -6.1568  -6.0749   1.8128   9.6505  13.5583
    14.4488  18.0013  21.3084

     occupation numbers 
     1.0000   1.0000   1.0000   1.0000   1.0000   1.0000   1.0228  -0.0000
    -0.0000  -0.0000  -0.0000

          k = 0.6827-0.2926 0.6827 (  2090 PWs)   bands (ev):

    -6.3546  -6.2704  -6.2224  -6.1437  -6.0614   2.8221   7.8665  12.6373
    14.5804  17.9629  23.3900

     occupation numbers 
     1.0000   1.0000   1.0000   1.0000   1.0000   1.0000   1.0000  -0.0003
    -0.0000  -0.0000  -0.0000

          k = 0.5852-0.1951 0.5852 (  2092 PWs)   bands (ev):

    -6.3377  -6.2622  -6.2299  -6.1313  -6.0881   3.0233   7.5836  12.0463
    15.1100  18.2892  23.1471

     occupation numbers 
     1.0000   1.0000   1.0000   1.0000   1.0000   1.0000   1.0000  -0.0104
    -0.0000  -0.0000  -0.0000

          k = 0.4877-0.0975 0.4877 (  2095 PWs)   bands (ev):

    -6.3142  -6.2760  -6.2272  -6.1461  -6.1179   2.1462   9.0410  11.9086
    15.9747  18.9665  22.8122

     occupation numbers 
     1.0000   1.0000   1.0000   1.0000   1.0000   1.0000   1.0012  -0.0179
    -0.0000  -0.0000  -0.0000

          k = 0.3901 0.0000 0.3901 (  2095 PWs)   bands (ev):

    -6.3008  -6.2907  -6.2143  -6.2132  -6.1181   1.1299  10.9014  12.6212
    16.9790  19.9948  22.2613

     occupation numbers 
     1.0000   1.0000   1.0000   1.0000   1.0000   1.0000   0.3079  -0.0003
    -0.0000  -0.0000  -0.0000

          k = 0.0000 0.5852 0.0000 (  2072 PWs)   bands (ev):

    -6.4114  -6.3058  -6.1357  -6.1357  -6.1156   1.3868  11.5128  13.9653
    13.9653  17.4693  17.9310

     occupation numbers 
     1.0000   1.0000   1.0000   1.0000   1.0000   1.0000  -0.0340  -0.0000
    -0.0000  -0.0000  -0.0000

          k =-0.0975 0.6827-0.0975 (  2093 PWs)   bands (ev):

    -6.4161  -6.3254  -6.1343  -6.1078  -6.0730   2.2293  10.0031  12.7488
    13.5839  17.1584  18.6425

     occupation numbers 
     1.0000   1.0000   1.0000   1.0000   1.0000   1.0000   1.0319  -0.0001
    -0.0000  -0.0000  -0.0000

          k = 0.7803-0.1951 0.7803 (  2103 PWs)   bands (ev):

    -6.3964  -6.3092  -6.1479  -6.1152  -6.0556   3.1765   8.6736  11.1982
    13.6241  17.1604  20.7752

     occupation numbers 
     1.0000   1.0000   1.0000   1.0000   1.0000   1.0000   1.0001   0.0509
    -0.0000  -0.0000  -0.0000

          k = 0.6827-0.0975 0.6827 (  2093 PWs)   bands (ev):

    -6.3717  -6.2499  -6.1620  -6.1550  -6.0798   3.6142   8.2988  10.0718
    14.0888  17.4481  23.4574

     occupation numbers 
     1.0000   1.0000   1.0000   1.0000   1.0000   1.0000   1.0000   1.0236
    -0.0000  -0.0000  -0.0000

          k = 0.5852 0.0000 0.5852 (  2097 PWs)   bands (ev):

    -6.3430  -6.2180  -6.1805  -6.1722  -6.1265   3.0607   8.9764   9.9535
    14.9243  18.0456  24.9849

     occupation numbers 
     1.0000   1.0000   1.0000   1.0000   1.0000   1.0000   1.0007   1.0347
    -0.0000  -0.0000  -0.0000

          k = 0.0000 0.7803 0.0000 (  2092 PWs)   bands (ev):

    -6.4478  -6.3586  -6.0875  -6.0634  -6.0634   2.9221   8.9893  13.0728
    13.0728  16.3585  17.4458

     occupation numbers 
     1.0000   1.0000   1.0000   1.0000   1.0000   1.0000   1.0008  -0.0000
    -0.0000  -0.0000  -0.0000

          k = 0.8778-0.0975 0.8778 (  2097 PWs)   bands (ev):

    -6.4409  -6.3620  -6.0922  -6.0584  -6.0451   3.6731   8.1159  11.8430
    12.9868  16.5699  18.2666

     occupation numbers 
     1.0000   1.0000   1.0000   1.0000   1.0000   1.0000   1.0000  -0.0222
    -0.0000  -0.0000  -0.0000

          k = 0.7803 0.0000 0.7803 (  2097 PWs)   bands (ev):

    -6.4079  -6.3219  -6.1128  -6.0963  -6.0596   3.9622   8.2044  10.1867
    13.3397  16.9052  20.5834

     occupation numbers 
     1.0000   1.0000   1.0000   1.0000   1.0000   1.0000   1.0000   0.9942
    -0.0000  -0.0000  -0.0000

          k = 0.0000-0.9753 0.0000 (  2100 PWs)   bands (ev):

    -6.4617  -6.3797  -6.0768  -6.0351  -6.0351   3.9634   7.5895  12.7649
    12.7649  16.0205  17.2860

     occupation numbers 
     1.0000   1.0000   1.0000   1.0000   1.0000   1.0000   1.0000  -0.0001
    -0.0001  -0.0000  -0.0000

          k =-0.1951 0.3901 0.0000 (  2075 PWs)   bands (ev):

    -6.3429  -6.2637  -6.2254  -6.2212  -6.1348   0.4229  12.5936  14.2467
    16.5966  20.1540  20.2692

     occupation numbers 
     1.0000   1.0000   1.0000   1.0000   1.0000   1.0000  -0.0004  -0.0000
    -0.0000  -0.0000  -0.0000

          k =-0.2926 0.4877-0.0975 (  2086 PWs)   bands (ev):

    -6.3332  -6.2809  -6.2307  -6.1763  -6.1026   1.3048  10.3580  13.3283
    15.8001  19.6430  21.4663

     occupation numbers 
     1.0000   1.0000   1.0000   1.0000   1.0000   1.0000   0.9036  -0.0000
    -0.0000  -0.0000  -0.0000

          k = 0.5852-0.3901 0.7803 (  2079 PWs)   bands (ev):

    -6.3216  -6.2980  -6.2353  -6.1381  -6.0796   2.3694   8.2499  13.0582
    14.9996  19.3536  21.4852

     occupation numbers 
     1.0000   1.0000   1.0000   1.0000   1.0000   1.0000   1.0000  -0.0000
    -0.0000  -0.0000  -0.0000

          k = 0.4877-0.2926 0.6827 (  2092 PWs)   bands (ev):

    -6.3145  -6.3085  -6.2355  -6.1232  -6.0720   2.9957   7.2594  13.0191
    14.6674  19.2697  21.2901

     occupation numbers 
     1.0000   1.0000   1.0000   1.0000   1.0000   1.0000   1.0000  -0.0000
    -0.0000  -0.0000  -0.0000

          k =-0.1951 0.5852 0.0000 (  2078 PWs)   bands (ev):

    -6.3811  -6.2944  -6.1883  -6.1379  -6.0945   1.6056  10.8002  12.9215
    14.2117  18.6364  19.3336

     occupation numbers 
     1.0000   1.0000   1.0000   1.0000   1.0000   1.0000   0.4281  -0.0000
    -0.0000  -0.0000  -0.0000

          k = 0.6827-0.2926 0.8778 (  2085 PWs)   bands (ev):

    -6.3617  -6.2965  -6.1955  -6.1222  -6.0745   2.5863   9.1975  11.8882
    13.4600  18.7267  21.0895

     occupation numbers 
     1.0000   1.0000   1.0000   1.0000   1.0000   1.0000   1.0030  -0.0192
    -0.0000  -0.0000  -0.0000

          k = 0.5852-0.1951 0.7803 (  2093 PWs)   bands (ev):

    -6.3429  -6.2720  -6.1931  -6.1528  -6.0673   3.3740   8.0522  11.1811
    13.3577  18.9160  22.7054

     occupation numbers 
     1.0000   1.0000   1.0000   1.0000   1.0000   1.0000   1.0000   0.0608
    -0.0000  -0.0000  -0.0000

          k = 0.4877-0.0975 0.6827 (  2092 PWs)   bands (ev):

    -6.3240  -6.2689  -6.1956  -6.1572  -6.0910   3.1516   8.4207  10.8091
    13.8719  19.3654  22.3962

     occupation numbers 
     1.0000   1.0000   1.0000   1.0000   1.0000   1.0000   1.0000   0.4173
    -0.0000  -0.0000  -0.0000

          k = 0.3901 0.0000 0.5852 (  2093 PWs)   bands (ev):

    -6.3020  -6.3013  -6.2151  -6.1412  -6.1133   2.2179   9.6578  11.2976
    14.7944  19.9328  22.0410

     occupation numbers 
     1.0000   1.0000   1.0000   1.0000   1.0000   1.0000   1.0233   0.0059
    -0.0000  -0.0000  -0.0000

          k = 0.7803-0.1951 0.9753 (  2093 PWs)   bands (ev):

    -6.4125  -6.3390  -6.1319  -6.0740  -6.0640   3.0683   8.9932  12.0701
    12.5045  17.7904  18.8043

     occupation numbers 
     1.0000   1.0000   1.0000   1.0000   1.0000   1.0000   1.0008  -0.0093
    -0.0008  -0.0000  -0.0000

          k = 0.6827-0.0975 0.8778 (  2110 PWs)   bands (ev):

    -6.3815  -6.3165  -6.1478  -6.1104  -6.0488   3.7815   8.4762  10.5095
    12.3972  18.2940  20.7449

     occupation numbers 
     1.0000   1.0000   1.0000   1.0000   1.0000   1.0000   1.0000   0.7716
    -0.0016  -0.0000  -0.0000

          k = 0.5852 0.0000 0.7803 (  2099 PWs)   bands (ev):

    -6.3523  -6.2503  -6.1937  -6.1478  -6.0668   3.7876   9.0884   9.1986
    12.9330  18.7539  23.4755

     occupation numbers 
     1.0000   1.0000   1.0000   1.0000   1.0000   1.0000   1.0016   1.0031
    -0.0000  -0.0000  -0.0000

          k =-0.1951-0.9753 0.0000 (  2100 PWs)   bands (ev):

    -6.4245  -6.3575  -6.0958  -6.0797  -6.0350   3.9969   7.8985  11.7769
    11.9596  17.5245  18.6266

     occupation numbers 
     1.0000   1.0000   1.0000   1.0000   1.0000   1.0000   1.0000  -0.0267
    -0.0148  -0.0000  -0.0000

          k = 0.5852-0.1951 0.9753 (  2107 PWs)   bands (ev):

    -6.3172  -6.3070  -6.2072  -6.1230  -6.0656   3.4289   8.9590  10.4510
    12.2931  20.3316  21.5044

     occupation numbers 
     1.0000   1.0000   1.0000   1.0000   1.0000   1.0000   1.0007   0.8281
    -0.0029  -0.0000  -0.0000

          k = 0.4877-0.0975 0.8778 (  2108 PWs)   bands (ev):

    -6.3121  -6.2674  -6.2310  -6.1485  -6.0495   3.8530   8.8069   9.9310
    11.8270  20.6463  22.3286

     occupation numbers 
     1.0000   1.0000   1.0000   1.0000   1.0000   1.0000   1.0002   1.0353
    -0.0233  -0.0000  -0.0000

          k =-0.3901-0.9753 0.0000 (  2106 PWs)   bands (ev):

    -6.3237  -6.3120  -6.1923  -6.1361  -6.0351   4.0538   8.7901  10.1599
    11.1400  20.3590  21.3148

     occupation numbers 
     1.0000   1.0000   1.0000   1.0000   1.0000   1.0000   1.0002   1.0030
     0.0869  -0.0000  -0.0000

     the Fermi energy is    10.7422 ev

!    total energy              =    -135.43809644 Ry
     Harris-Foulkes estimate   =    -135.43809644 Ry
     estimated scf accuracy    <          2.1E-14 Ry

     The total energy is the sum of the following terms:

     one-electron contribution =     -35.20659717 Ry
     hartree contribution      =      27.38866820 Ry
     xc contribution           =     -32.58518289 Ry
     ewald contribution        =     -95.03466415 Ry
     smearing contrib. (-TS)   =      -0.00032043 Ry

     convergence has been achieved in   8 iterations

     Forces acting on atoms (cartesian axes, Ry/au):

     atom    1 type  1   force =     0.00000000    0.00000000    0.00000000
     The non-local contrib.  to forces
     atom    1 type  1   force =    -0.00000000    0.00000000    0.00000000
     The ionic contribution  to forces
     atom    1 type  1   force =    -0.00000000   -0.00000000   -0.00000000
     The local contribution  to forces
     atom    1 type  1   force =    -0.00000000    0.00000000    0.00000000
     The core correction contribution to forces
     atom    1 type  1   force =    -0.00000000    0.00000000    0.00000000
     The Hubbard contrib.    to forces
     atom    1 type  1   force =     0.00000000    0.00000000    0.00000000
     The SCF correction term to forces
     atom    1 type  1   force =     0.00000000    0.00000000   -0.00000000

     Total force =     0.000000     Total SCF correction =     0.000000


     Computing stress (Cartesian axis) and pressure

          total   stress  (Ry/bohr**3)                   (kbar)     P=    3.87
   0.00002629  -0.00000000  -0.00000000          3.87     -0.00     -0.00
  -0.00000000   0.00002629   0.00000000         -0.00      3.87      0.00
  -0.00000000   0.00000000   0.00002629         -0.00      0.00      3.87

     kinetic stress (kbar)  29571.05      0.00      0.00
                                0.00  29571.05     -0.00
                                0.00     -0.00  29571.05

     local   stress (kbar)   2907.53      0.00      0.00
                                0.00   2907.53     -0.00
                                0.00     -0.00   2907.53

     nonloc. stress (kbar) -11925.65      0.00      0.00
                                0.00 -11925.65     -0.00
                                0.00     -0.00 -11925.65

     hartree stress (kbar)   6353.84     -0.00     -0.00
                               -0.00   6353.84      0.00
                               -0.00      0.00   6353.84

     exc-cor stress (kbar)   6814.68     -0.00     -0.00
                               -0.00   6814.68      0.00
                               -0.00      0.00   6814.68

     corecor stress (kbar) -11670.68     -0.00      0.00
                               -0.00 -11670.68     -0.00
                                0.00     -0.00 -11670.68

     ewald   stress (kbar) -22046.90     -0.00      0.00
                               -0.00 -22046.90      0.00
                                0.00      0.00 -22046.90

     hubbard stress (kbar)      0.00      0.00      0.00
                                0.00      0.00      0.00
                                0.00      0.00      0.00

     london  stress (kbar)      0.00      0.00      0.00
                                0.00      0.00      0.00
                                0.00      0.00      0.00

     DFT-D3  stress (kbar)      0.00      0.00      0.00
                                0.00      0.00      0.00
                                0.00      0.00      0.00

     XDM     stress (kbar)      0.00      0.00      0.00
                                0.00      0.00      0.00
                                0.00      0.00      0.00

     dft-nl  stress (kbar)      0.00      0.00      0.00
                                0.00      0.00      0.00
                                0.00      0.00      0.00

     TS-vdW  stress (kbar)      0.00      0.00      0.00
                                0.00      0.00      0.00
                                0.00      0.00      0.00



     Writing output data file Pb.save/

     init_run     :      7.27s CPU      7.43s WALL (       2 calls)
     electrons    :    272.23s CPU    282.11s WALL (       6 calls)
     update_pot   :     10.95s CPU     10.97s WALL (       4 calls)
     forces       :      9.28s CPU      9.56s WALL (       6 calls)
     stress       :     24.25s CPU     25.12s WALL (       6 calls)

     Called by init_run:
     wfcinit      :      1.75s CPU      1.78s WALL (       2 calls)
     wfcinit:atom :      0.05s CPU      0.05s WALL (      94 calls)
     wfcinit:wfcr :      1.62s CPU      1.65s WALL (      94 calls)
     potinit      :      0.82s CPU      0.83s WALL (       2 calls)
     hinit0       :      4.41s CPU      4.42s WALL (       2 calls)

     Called by electrons:
     c_bands      :    209.12s CPU    210.27s WALL (      88 calls)
     sum_band     :     47.00s CPU     51.65s WALL (      88 calls)
     v_of_rho     :      6.22s CPU      6.42s WALL (      93 calls)
     v_h          :      0.34s CPU      0.34s WALL (      93 calls)
     v_xc         :      6.63s CPU      6.84s WALL (     105 calls)
     newd         :      9.46s CPU     13.61s WALL (      93 calls)
     mix_rho      :      0.83s CPU      0.85s WALL (      88 calls)

     Called by c_bands:
     init_us_2    :      5.01s CPU      5.04s WALL (    8930 calls)
     cegterg      :    197.70s CPU    198.77s WALL (    4136 calls)

     Called by sum_band:
     sum_band:bec :      0.05s CPU      0.05s WALL (    4136 calls)
     addusdens    :      9.91s CPU     14.28s WALL (      88 calls)

     Called by *egterg:
     h_psi        :    154.68s CPU    155.57s WALL (   12018 calls)
     s_psi        :      7.43s CPU      7.48s WALL (   12018 calls)
     g_psi        :      0.99s CPU      0.99s WALL (    7788 calls)
     cdiaghg      :      2.57s CPU      2.59s WALL (   11689 calls)
     cegterg:over :     13.90s CPU     13.96s WALL (    7788 calls)
     cegterg:upda :      8.02s CPU      8.07s WALL (    7788 calls)
     cegterg:last :      5.27s CPU      5.30s WALL (    4274 calls)

     Called by h_psi:
     h_psi:pot    :    154.12s CPU    155.00s WALL (   12018 calls)
     h_psi:calbec :      8.41s CPU      8.45s WALL (   12018 calls)
     vloc_psi     :    138.06s CPU    138.86s WALL (   12018 calls)
     add_vuspsi   :      7.58s CPU      7.63s WALL (   12018 calls)

     General routines
     calbec       :     12.74s CPU     12.82s WALL (   17564 calls)
     fft          :      3.43s CPU      3.45s WALL (    1352 calls)
     ffts         :      0.19s CPU      0.20s WALL (     181 calls)
     fftw         :    144.16s CPU    145.13s WALL (  270314 calls)
     interpolate  :      0.39s CPU      0.39s WALL (      93 calls)

     Parallel routines

     PWSCF        :   5m25.28s CPU   5m36.69s WALL


   This run was terminated on:  13:42:52   1Jul2021            

=------------------------------------------------------------------------------=
   JOB DONE.
=------------------------------------------------------------------------------=
