 BEGIN_INFO
   #
   # this is a Band-XCRYSDEN-Structure-File
   # aimed at Visualization of Fermi Surface
   #
   # Case:   Pb_fs.bxsf
   #
 Fermi Energy:         11.9406
 END_INFO
 BEGIN_BLOCK_BANDGRID_3D
 band_energies
 BANDGRID_3D_BANDS
    2
   21   21   21
  0.000000  0.000000  0.000000
 -1.000000 -1.000000  1.000000
  1.000000  1.000000  1.000000
 -1.000000  1.000000 -1.000000
BAND:   7
   19.6449   18.9682   17.5290   15.9020   14.2713   12.7008
   11.2242    9.8729    8.6971    7.8092    7.4500    7.8092
    8.6971    9.8729   11.2242   12.7008   14.2713   15.9020
   17.5290   18.9682   19.6449   18.9682   19.1871   18.0121
   16.4473   14.8243   13.2395   11.7358   10.3448    9.1078
    8.1098    7.5451    7.6676    8.4080    9.5004   10.7948
   12.2262   13.7581   15.3550   16.9504   18.3145   18.9682
   17.5290   18.0121   18.1911   16.9363   15.3822   13.8157
   12.3071   10.8952    9.6185    8.5436    7.8198    7.7037
    8.2593    9.2423   10.4606   11.8260   13.2863   14.7751
   16.1009   16.9504   17.5290   15.9020   16.4473   16.9363
   17.0117   15.8324   14.3626   12.8913   11.4881   10.1980
    9.0786    8.2454    7.9215    8.2669    9.1116   10.2299
   11.4964   12.8118   13.9824   14.7751   15.3550   15.9020
   14.2713   14.8243   15.3822   15.8324   15.7311   14.6845
   13.3688   12.0417   10.7860    9.6654    8.7765    8.3021
    8.4404    9.1203   10.1050   11.2015   12.1724   12.8118
   13.2863   13.7581   14.2713   12.7008   13.2395   13.8157
   14.3626   14.6845   14.3577   13.4419   12.3438   11.2316
   10.1948    9.3298    8.7911    8.7722    9.2794   10.0725
   10.7946   11.2015   11.4964   11.8260   12.2262   12.7008
   11.2242   11.7358   12.3071   12.8913   13.3688   13.4419
   12.9171   12.1031   11.2325   10.4025    9.6963    9.2409
    9.2005    9.5957   10.0196   10.0725   10.1050   10.2299
   10.4606   10.7948   11.2242    9.8729   10.3448   10.8952
   11.4881   12.0417   12.3438   12.1031   11.4689   10.7457
   10.0769    9.5538    9.2873    9.4039    9.9066    9.5957
    9.2794    9.1203    9.1116    9.2423    9.5004    9.8729
    8.6971    9.1078    9.6185   10.1980   10.7860   11.2316
   11.2325   10.7457   10.0976    9.4969    9.0628    8.9098
    9.0992    9.4039    9.2005    8.7722    8.4404    8.2669
    8.2593    8.4080    8.6971    7.8092    8.1098    8.5436
    9.0786    9.6654   10.1948   10.4025   10.0769    9.4969
    8.9523    8.6112    8.5990    8.9098    9.2873    9.2409
    8.7911    8.3021    7.9215    7.7037    7.6676    7.8092
    7.4500    7.5451    7.8198    8.2454    8.7765    9.3298
    9.6963    9.5538    9.0628    8.6112    8.4294    8.6112
    9.0628    9.5538    9.6963    9.3298    8.7765    8.2454
    7.8198    7.5451    7.4500    7.8092    7.6676    7.7037
    7.9215    8.3021    8.7911    9.2409    9.2873    8.9098
    8.5990    8.6112    8.9523    9.4969   10.0769   10.4025
   10.1948    9.6654    9.0786    8.5436    8.1098    7.8092
    8.6971    8.4080    8.2593    8.2669    8.4404    8.7722
    9.2005    9.4039    9.0992    8.9098    9.0628    9.4969
   10.0976   10.7457   11.2325   11.2316   10.7860   10.1980
    9.6185    9.1078    8.6971    9.8729    9.5004    9.2423
    9.1116    9.1203    9.2794    9.5957    9.9066    9.4039
    9.2873    9.5538   10.0769   10.7457   11.4689   12.1031
   12.3438   12.0417   11.4881   10.8952   10.3448    9.8729
   11.2242   10.7948   10.4606   10.2299   10.1050   10.0725
   10.0196    9.5957    9.2005    9.2409    9.6963   10.4025
   11.2325   12.1031   12.9171   13.4419   13.3688   12.8913
   12.3071   11.7358   11.2242   12.7008   12.2262   11.8260
   11.4964   11.2015   10.7946   10.0725    9.2794    8.7722
    8.7911    9.3298   10.1948   11.2316   12.3438   13.4419
   14.3577   14.6845   14.3626   13.8157   13.2395   12.7008
   14.2713   13.7581   13.2863   12.8118   12.1724   11.2015
   10.1050    9.1203    8.4404    8.3021    8.7765    9.6654
   10.7860   12.0417   13.3688   14.6845   15.7311   15.8324
   15.3822   14.8243   14.2713   15.9020   15.3550   14.7751
   13.9824   12.8118   11.4964   10.2299    9.1116    8.2669
    7.9215    8.2454    9.0786   10.1980   11.4881   12.8913
   14.3626   15.8324   17.0117   16.9363   16.4473   15.9020
   17.5290   16.9504   16.1009   14.7751   13.2863   11.8260
   10.4606    9.2423    8.2593    7.7037    7.8198    8.5436
    9.6185   10.8952   12.3071   13.8157   15.3822   16.9363
   18.1911   18.0121   17.5290   18.9682   18.3145   16.9504
   15.3550   13.7581   12.2262   10.7948    9.5004    8.4080
    7.6676    7.5451    8.1098    9.1078   10.3448   11.7358
   13.2395   14.8243   16.4473   18.0121   19.1871   18.9682
   19.6449   18.9682   17.5290   15.9020   14.2713   12.7008
   11.2242    9.8729    8.6971    7.8092    7.4500    7.8092
    8.6971    9.8729   11.2242   12.7008   14.2713   15.9020
   17.5290   18.9682   19.6449   18.9682   19.1871   18.0121
   16.4473   14.8243   13.2395   11.7358   10.3448    9.1078
    8.1098    7.5451    7.6676    8.4080    9.5004   10.7948
   12.2262   13.7581   15.3550   16.9504   18.3145   18.9682
   19.1871   18.9682   18.3145   16.9504   15.3550   13.7581
   12.2262   10.7948    9.5004    8.4080    7.6676    7.5451
    8.1098    9.1078   10.3448   11.7358   13.2395   14.8243
   16.4473   18.0121   19.1871   18.0121   18.3145   18.0121
   17.2307   15.8585   14.3075   12.7758   11.3241    9.9919
    8.8328    7.9602    7.6091    7.9602    8.8328    9.9919
   11.3241   12.7758   14.3075   15.8585   17.2307   18.0121
   16.4473   16.9504   17.2307   16.9363   16.1288   14.8108
   13.3415   11.9018   10.5562    9.3572    8.3942    7.8568
    7.9773    8.6910    9.7487   10.9995   12.3653   13.7681
   15.0213   15.8585   16.4473   14.8243   15.3550   15.8585
   16.1288   15.8324   15.0283   13.8076   12.4585   11.1442
    9.9414    8.9309    8.2632    8.1691    8.6966    9.6249
   10.7603   11.9665   13.0389   13.7681   14.3075   14.8243
   13.2395   13.7581   14.3075   14.8108   15.0283   14.6845
   13.8930   12.8124   11.6371   10.5021    9.5052    8.7775
    8.5231    8.8604    9.6286   10.5790   11.4279   11.9665
   12.3653   12.7758   13.2395   11.7358   12.2262   12.7758
   13.3415   13.8076   13.8930   13.4419   12.6733   11.7651
   10.8295    9.9635    9.2887    8.9823    9.1807    9.7618
   10.3241   10.5790   10.7603   10.9995   11.3241   11.7358
   10.3448   10.7948   11.3241   11.9018   12.4585   12.8124
   12.6733   12.1031   11.3778   10.6453    9.9913    9.5103
    9.3390    9.5883    9.9578    9.7618    9.6286    9.6249
    9.7487    9.9919   10.3448    9.1078    9.5004    9.9919
   10.5562   11.1442   11.6371   11.7651   11.3778   10.7457
   10.0983    9.5532    9.2125    9.1893    9.5053    9.5883
    9.1807    8.8604    8.6966    8.6910    8.8328    9.1078
    8.1098    8.4080    8.8328    9.3572    9.9414   10.5021
   10.8295   10.6453   10.0983    9.4969    9.0102    8.7639
    8.8502    9.1893    9.3390    8.9823    8.5231    8.1691
    7.9773    7.9602    8.1098    7.5451    7.6676    7.9602
    8.3942    8.9309    9.5052    9.9635    9.9913    9.5532
    9.0102    8.6112    8.5143    8.7639    9.2125    9.5103
    9.2887    8.7775    8.2632    7.8568    7.6091    7.5451
    7.6676    7.5451    7.6091    7.8568    8.2632    8.7775
    9.2887    9.5103    9.2125    8.7639    8.5143    8.6112
    9.0102    9.5532    9.9913    9.9635    9.5052    8.9309
    8.3942    7.9602    7.6676    8.4080    8.1098    7.9602
    7.9773    8.1691    8.5231    8.9823    9.3390    9.1893
    8.8502    8.7639    9.0102    9.4969   10.0983   10.6453
   10.8295   10.5021    9.9414    9.3572    8.8328    8.4080
    9.5004    9.1078    8.8328    8.6910    8.6966    8.8604
    9.1807    9.5883    9.5053    9.1893    9.2125    9.5532
   10.0983   10.7457   11.3778   11.7651   11.6371   11.1442
   10.5562    9.9919    9.5004   10.7948   10.3448    9.9919
    9.7487    9.6249    9.6286    9.7618    9.9578    9.5883
    9.3390    9.5103    9.9913   10.6453   11.3778   12.1031
   12.6733   12.8124   12.4585   11.9018   11.3241   10.7948
   12.2262   11.7358   11.3241   10.9995   10.7603   10.5790
   10.3241    9.7618    9.1807    8.9823    9.2887    9.9635
   10.8295   11.7651   12.6733   13.4419   13.8930   13.8076
   13.3415   12.7758   12.2262   13.7581   13.2395   12.7758
   12.3653   11.9665   11.4279   10.5790    9.6286    8.8604
    8.5231    8.7775    9.5052   10.5021   11.6371   12.8124
   13.8930   14.6845   15.0283   14.8108   14.3075   13.7581
   15.3550   14.8243   14.3075   13.7681   13.0389   11.9665
   10.7603    9.6249    8.6966    8.1691    8.2632    8.9309
    9.9414   11.1442   12.4585   13.8076   15.0283   15.8324
   16.1288   15.8585   15.3550   16.9504   16.4473   15.8585
   15.0213   13.7681   12.3653   10.9995    9.7487    8.6910
    7.9773    7.8568    8.3942    9.3572   10.5562   11.9018
   13.3415   14.8108   16.1288   16.9363   17.2307   16.9504
   18.3145   18.0121   17.2307   15.8585   14.3075   12.7758
   11.3241    9.9919    8.8328    7.9602    7.6091    7.9602
    8.8328    9.9919   11.3241   12.7758   14.3075   15.8585
   17.2307   18.0121   18.3145   18.9682   19.1871   18.0121
   16.4473   14.8243   13.2395   11.7358   10.3448    9.1078
    8.1098    7.5451    7.6676    8.4080    9.5004   10.7948
   12.2262   13.7581   15.3550   16.9504   18.3145   18.9682
   17.5290   18.0121   18.1911   16.9363   15.3822   13.8157
   12.3071   10.8952    9.6185    8.5436    7.8198    7.7037
    8.2593    9.2423   10.4606   11.8260   13.2863   14.7751
   16.1009   16.9504   17.5290   18.0121   18.3145   18.0121
   17.2307   15.8585   14.3075   12.7758   11.3241    9.9919
    8.8328    7.9602    7.6091    7.9602    8.8328    9.9919
   11.3241   12.7758   14.3075   15.8585   17.2307   18.0121
   18.1911   18.0121   17.5290   16.9504   16.1009   14.7751
   13.2863   11.8260   10.4606    9.2423    8.2593    7.7037
    7.8198    8.5436    9.6185   10.8952   12.3071   13.8157
   15.3822   16.9363   18.1911   16.9363   17.2307   16.9504
   16.4473   15.8585   15.0213   13.7681   12.3653   10.9995
    9.7487    8.6910    7.9773    7.8568    8.3942    9.3572
   10.5562   11.9018   13.3415   14.8108   16.1288   16.9363
   15.3822   15.8585   16.1009   15.8585   15.3822   14.8108
   14.0084   12.8498   11.5585   10.3161    9.2216    8.4013
    8.0753    8.4013    9.2216   10.3161   11.5585   12.8498
   14.0084   14.8108   15.3822   13.8157   14.3075   14.7751
   15.0213   14.8108   14.3626   13.8076   13.0479   12.0107
   10.8692    9.7969    8.9295    8.4568    8.5750    9.2243
   10.1767   11.2402   12.1932   12.8498   13.3415   13.8157
   12.3071   12.7758   13.2863   13.7681   14.0084   13.8076
   13.3688   12.8124   12.0993   11.2199   10.2922    9.4739
    8.9471    8.9092    9.3768   10.1223   10.8143   11.2402
   11.5585   11.9018   12.3071   10.8952   11.3241   11.8260
   12.3653   12.8498   13.0479   12.8124   12.3438   11.7651
   11.1115   10.4309    9.8121    9.3946    9.3456    9.6879
   10.0502   10.1223   10.1767   10.3161   10.5562   10.8952
    9.6185    9.9919   10.4606   10.9995   11.5585   12.0107
   12.0993   11.7651   11.2325   10.6453   10.0884    9.6465
    9.4298    9.5599   10.0564    9.6879    9.3768    9.2243
    9.2216    9.3572    9.6185    8.5436    8.8328    9.2423
    9.7487   10.3161   10.8692   11.2199   11.1115   10.6453
   10.0769    9.5532    9.1798    9.0635    9.2597    9.5599
    9.3456    8.9092    8.5750    8.4013    8.3942    8.5436
    7.8198    7.9602    8.2593    8.6910    9.2216    9.7969
   10.2922   10.4309   10.0884    9.5532    9.0628    8.7639
    8.7663    9.0635    9.4298    9.3946    8.9471    8.4568
    8.0753    7.8568    7.8198    7.7037    7.6091    7.7037
    7.9773    8.4013    8.9295    9.4739    9.8121    9.6465
    9.1798    8.7639    8.5990    8.7639    9.1798    9.6465
    9.8121    9.4739    8.9295    8.4013    7.9773    7.7037
    8.2593    7.9602    7.8198    7.8568    8.0753    8.4568
    8.9471    9.3946    9.4298    9.0635    8.7663    8.7639
    9.0628    9.5532   10.0884   10.4309   10.2922    9.7969
    9.2216    8.6910    8.2593    9.2423    8.8328    8.5436
    8.3942    8.4013    8.5750    8.9092    9.3456    9.5599
    9.2597    9.0635    9.1798    9.5532   10.0769   10.6453
   11.1115   11.2199   10.8692   10.3161    9.7487    9.2423
   10.4606    9.9919    9.6185    9.3572    9.2216    9.2243
    9.3768    9.6879   10.0564    9.5599    9.4298    9.6465
   10.0884   10.6453   11.2325   11.7651   12.0993   12.0107
   11.5585   10.9995   10.4606   11.8260   11.3241   10.8952
   10.5562   10.3161   10.1767   10.1223   10.0502    9.6879
    9.3456    9.3946    9.8121   10.4309   11.1115   11.7651
   12.3438   12.8124   13.0479   12.8498   12.3653   11.8260
   13.2863   12.7758   12.3071   11.9018   11.5585   11.2402
   10.8143   10.1223    9.3768    8.9092    8.9471    9.4739
   10.2922   11.2199   12.0993   12.8124   13.3688   13.8076
   14.0084   13.7681   13.2863   14.7751   14.3075   13.8157
   13.3415   12.8498   12.1932   11.2402   10.1767    9.2243
    8.5750    8.4568    8.9295    9.7969   10.8692   12.0107
   13.0479   13.8076   14.3626   14.8108   15.0213   14.7751
   16.1009   15.8585   15.3822   14.8108   14.0084   12.8498
   11.5585   10.3161    9.2216    8.4013    8.0753    8.4013
    9.2216   10.3161   11.5585   12.8498   14.0084   14.8108
   15.3822   15.8585   16.1009   16.9504   17.2307   16.9363
   16.1288   14.8108   13.3415   11.9018   10.5562    9.3572
    8.3942    7.8568    7.9773    8.6910    9.7487   10.9995
   12.3653   13.7681   15.0213   15.8585   16.4473   16.9504
   17.5290   18.0121   18.1911   16.9363   15.3822   13.8157
   12.3071   10.8952    9.6185    8.5436    7.8198    7.7037
    8.2593    9.2423   10.4606   11.8260   13.2863   14.7751
   16.1009   16.9504   17.5290   15.9020   16.4473   16.9363
   17.0117   15.8324   14.3626   12.8913   11.4881   10.1980
    9.0786    8.2454    7.9215    8.2669    9.1116   10.2299
   11.4964   12.8118   13.9824   14.7751   15.3550   15.9020
   16.4473   16.9504   17.2307   16.9363   16.1288   14.8108
   13.3415   11.9018   10.5562    9.3572    8.3942    7.8568
    7.9773    8.6910    9.7487   10.9995   12.3653   13.7681
   15.0213   15.8585   16.4473   16.9363   17.2307   16.9504
   16.4473   15.8585   15.0213   13.7681   12.3653   10.9995
    9.7487    8.6910    7.9773    7.8568    8.3942    9.3572
   10.5562   11.9018   13.3415   14.8108   16.1288   16.9363
   17.0117   16.9363   16.4473   15.9020   15.3550   14.7751
   13.9824   12.8118   11.4964   10.2299    9.1116    8.2669
    7.9215    8.2454    9.0786   10.1980   11.4881   12.8913
   14.3626   15.8324   17.0117   15.8324   16.1288   15.8585
   15.3550   14.8243   14.3075   13.7681   13.0389   11.9665
   10.7603    9.6249    8.6966    8.1691    8.2632    8.9309
    9.9414   11.1442   12.4585   13.8076   15.0283   15.8324
   14.3626   14.8108   15.0213   14.7751   14.3075   13.8157
   13.3415   12.8498   12.1932   11.2402   10.1767    9.2243
    8.5750    8.4568    8.9295    9.7969   10.8692   12.0107
   13.0479   13.8076   14.3626   12.8913   13.3415   13.7681
   13.9824   13.7681   13.3415   12.8913   12.4585   12.0107
   11.4323   10.6332    9.7712    9.0870    8.8154    9.0870
    9.7712   10.6332   11.4323   12.0107   12.4585   12.8913
   11.4881   11.9018   12.3653   12.8118   13.0389   12.8498
   12.4585   12.0417   11.6371   11.2199   10.7274   10.1382
    9.5823    9.2845    9.4069    9.8624   10.3366   10.6332
   10.8692   11.1442   11.4881   10.1980   10.5562   10.9995
   11.4964   11.9665   12.1932   12.0107   11.6371   11.2316
   10.8295   10.4309   10.0488    9.7472    9.6482    9.8437
   10.0126    9.8624    9.7712    9.7969    9.9414   10.1980
    9.0786    9.3572    9.7487   10.2299   10.7603   11.2402
   11.4323   11.2199   10.8295   10.4025    9.9913    9.6465
    9.4485    9.4955    9.8147    9.8437    9.4069    9.0870
    8.9295    8.9309    9.0786    8.2454    8.3942    8.6910
    9.1116    9.6249   10.1767   10.6332   10.7274   10.4309
    9.9913    9.5538    9.2125    9.0635    9.1770    9.4955
    9.6482    9.2845    8.8154    8.4568    8.2632    8.2454
    7.9215    7.8568    7.9773    8.2669    8.6966    9.2243
    9.7712   10.1382   10.0488    9.6465    9.2125    8.9098
    8.8502    9.0635    9.4485    9.7472    9.5823    9.0870
    8.5750    8.1691    7.9215    8.2669    7.9773    7.8568
    7.9215    8.1691    8.5750    9.0870    9.5823    9.7472
    9.4485    9.0635    8.8502    8.9098    9.2125    9.6465
   10.0488   10.1382    9.7712    9.2243    8.6966    8.2669
    9.1116    8.6910    8.3942    8.2454    8.2632    8.4568
    8.8154    9.2845    9.6482    9.4955    9.1770    9.0635
    9.2125    9.5538    9.9913   10.4309   10.7274   10.6332
   10.1767    9.6249    9.1116   10.2299    9.7487    9.3572
    9.0786    8.9309    8.9295    9.0870    9.4069    9.8437
    9.8147    9.4955    9.4485    9.6465    9.9913   10.4025
   10.8295   11.2199   11.4323   11.2402   10.7603   10.2299
   11.4964   10.9995   10.5562   10.1980    9.9414    9.7969
    9.7712    9.8624   10.0126    9.8437    9.6482    9.7472
   10.0488   10.4309   10.8295   11.2316   11.6371   12.0107
   12.1932   11.9665   11.4964   12.8118   12.3653   11.9018
   11.4881   11.1442   10.8692   10.6332   10.3366    9.8624
    9.4069    9.2845    9.5823   10.1382   10.7274   11.2199
   11.6371   12.0417   12.4585   12.8498   13.0389   12.8118
   13.9824   13.7681   13.3415   12.8913   12.4585   12.0107
   11.4323   10.6332    9.7712    9.0870    8.8154    9.0870
    9.7712   10.6332   11.4323   12.0107   12.4585   12.8913
   13.3415   13.7681   13.9824   14.7751   15.0213   14.8108
   14.3626   13.8076   13.0479   12.0107   10.8692    9.7969
    8.9295    8.4568    8.5750    9.2243   10.1767   11.2402
   12.1932   12.8498   13.3415   13.8157   14.3075   14.7751
   15.3550   15.8585   16.1288   15.8324   15.0283   13.8076
   12.4585   11.1442    9.9414    8.9309    8.2632    8.1691
    8.6966    9.6249   10.7603   11.9665   13.0389   13.7681
   14.3075   14.8243   15.3550   15.9020   16.4473   16.9363
   17.0117   15.8324   14.3626   12.8913   11.4881   10.1980
    9.0786    8.2454    7.9215    8.2669    9.1116   10.2299
   11.4964   12.8118   13.9824   14.7751   15.3550   15.9020
   14.2713   14.8243   15.3822   15.8324   15.7311   14.6845
   13.3688   12.0417   10.7860    9.6654    8.7765    8.3021
    8.4404    9.1203   10.1050   11.2015   12.1724   12.8118
   13.2863   13.7581   14.2713   14.8243   15.3550   15.8585
   16.1288   15.8324   15.0283   13.8076   12.4585   11.1442
    9.9414    8.9309    8.2632    8.1691    8.6966    9.6249
   10.7603   11.9665   13.0389   13.7681   14.3075   14.8243
   15.3822   15.8585   16.1009   15.8585   15.3822   14.8108
   14.0084   12.8498   11.5585   10.3161    9.2216    8.4013
    8.0753    8.4013    9.2216   10.3161   11.5585   12.8498
   14.0084   14.8108   15.3822   15.8324   16.1288   15.8585
   15.3550   14.8243   14.3075   13.7681   13.0389   11.9665
   10.7603    9.6249    8.6966    8.1691    8.2632    8.9309
    9.9414   11.1442   12.4585   13.8076   15.0283   15.8324
   15.7311   15.8324   15.3822   14.8243   14.2713   13.7581
   13.2863   12.8118   12.1724   11.2015   10.1050    9.1203
    8.4404    8.3021    8.7765    9.6654   10.7860   12.0417
   13.3688   14.6845   15.7311   14.6845   15.0283   14.8108
   14.3075   13.7581   13.2395   12.7758   12.3653   11.9665
   11.4279   10.5790    9.6286    8.8604    8.5231    8.7775
    9.5052   10.5021   11.6371   12.8124   13.8930   14.6845
   13.3688   13.8076   14.0084   13.7681   13.2863   12.7758
   12.3071   11.9018   11.5585   11.2402   10.8143   10.1223
    9.3768    8.9092    8.9471    9.4739   10.2922   11.2199
   12.0993   12.8124   13.3688   12.0417   12.4585   12.8498
   13.0389   12.8118   12.3653   11.9018   11.4881   11.1442
   10.8692   10.6332   10.3366    9.8624    9.4069    9.2845
    9.5823   10.1382   10.7274   11.2199   11.6371   12.0417
   10.7860   11.1442   11.5585   11.9665   12.1724   11.9665
   11.5585   11.1442   10.7860   10.5021   10.2922   10.1382
    9.9975    9.8366    9.7488    9.8366    9.9975   10.1382
   10.2922   10.5021   10.7860    9.6654    9.9414   10.3161
   10.7603   11.2015   11.4279   11.2402   10.8692   10.5021
   10.1948    9.9635    9.8121    9.7472    9.7980   10.0198
   10.2157    9.8366    9.5823    9.4739    9.5052    9.6654
    8.7765    8.9309    9.2216    9.6249   10.1050   10.5790
   10.8143   10.6332   10.2922    9.9635    9.6963    9.5103
    9.4298    9.4955    9.7333   10.0198    9.7488    9.2845
    8.9471    8.7775    8.7765    8.3021    8.2632    8.4013
    8.6966    9.1203    9.6286   10.1223   10.3366   10.1382
    9.8121    9.5103    9.2873    9.1893    9.2597    9.4955
    9.7980    9.8366    9.4069    8.9092    8.5231    8.3021
    8.4404    8.1691    8.0753    8.1691    8.4404    8.8604
    9.3768    9.8624    9.9975    9.7472    9.4298    9.1893
    9.0992    9.1893    9.4298    9.7472    9.9975    9.8624
    9.3768    8.8604    8.4404    9.1203    8.6966    8.4013
    8.2632    8.3021    8.5231    8.9092    9.4069    9.8366
    9.7980    9.4955    9.2597    9.1893    9.2873    9.5103
    9.8121   10.1382   10.3366   10.1223    9.6286    9.1203
   10.1050    9.6249    9.2216    8.9309    8.7765    8.7775
    8.9471    9.2845    9.7488   10.0198    9.7333    9.4955
    9.4298    9.5103    9.6963    9.9635   10.2922   10.6332
   10.8143   10.5790   10.1050   11.2015   10.7603   10.3161
    9.9414    9.6654    9.5052    9.4739    9.5823    9.8366
   10.2157   10.0198    9.7980    9.7472    9.8121    9.9635
   10.1948   10.5021   10.8692   11.2402   11.4279   11.2015
   12.1724   11.9665   11.5585   11.1442   10.7860   10.5021
   10.2922   10.1382    9.9975    9.8366    9.7488    9.8366
    9.9975   10.1382   10.2922   10.5021   10.7860   11.1442
   11.5585   11.9665   12.1724   12.8118   13.0389   12.8498
   12.4585   12.0417   11.6371   11.2199   10.7274   10.1382
    9.5823    9.2845    9.4069    9.8624   10.3366   10.6332
   10.8692   11.1442   11.4881   11.9018   12.3653   12.8118
   13.2863   13.7681   14.0084   13.8076   13.3688   12.8124
   12.0993   11.2199   10.2922    9.4739    8.9471    8.9092
    9.3768   10.1223   10.8143   11.2402   11.5585   11.9018
   12.3071   12.7758   13.2863   13.7581   14.3075   14.8108
   15.0283   14.6845   13.8930   12.8124   11.6371   10.5021
    9.5052    8.7775    8.5231    8.8604    9.6286   10.5790
   11.4279   11.9665   12.3653   12.7758   13.2395   13.7581
   14.2713   14.8243   15.3822   15.8324   15.7311   14.6845
   13.3688   12.0417   10.7860    9.6654    8.7765    8.3021
    8.4404    9.1203   10.1050   11.2015   12.1724   12.8118
   13.2863   13.7581   14.2713   12.7008   13.2395   13.8157
   14.3626   14.6845   14.3577   13.4419   12.3438   11.2316
   10.1948    9.3298    8.7911    8.7722    9.2794   10.0725
   10.7946   11.2015   11.4964   11.8260   12.2262   12.7008
   13.2395   13.7581   14.3075   14.8108   15.0283   14.6845
   13.8930   12.8124   11.6371   10.5021    9.5052    8.7775
    8.5231    8.8604    9.6286   10.5790   11.4279   11.9665
   12.3653   12.7758   13.2395   13.8157   14.3075   14.7751
   15.0213   14.8108   14.3626   13.8076   13.0479   12.0107
   10.8692    9.7969    8.9295    8.4568    8.5750    9.2243
   10.1767   11.2402   12.1932   12.8498   13.3415   13.8157
   14.3626   14.8108   15.0213   14.7751   14.3075   13.8157
   13.3415   12.8498   12.1932   11.2402   10.1767    9.2243
    8.5750    8.4568    8.9295    9.7969   10.8692   12.0107
   13.0479   13.8076   14.3626   14.6845   15.0283   14.8108
   14.3075   13.7581   13.2395   12.7758   12.3653   11.9665
   11.4279   10.5790    9.6286    8.8604    8.5231    8.7775
    9.5052   10.5021   11.6371   12.8124   13.8930   14.6845
   14.3577   14.6845   14.3626   13.8157   13.2395   12.7008
   12.2262   11.8260   11.4964   11.2015   10.7946   10.0725
    9.2794    8.7722    8.7911    9.3298   10.1948   11.2316
   12.3438   13.4419   14.3577   13.4419   13.8930   13.8076
   13.3415   12.7758   12.2262   11.7358   11.3241   10.9995
   10.7603   10.5790   10.3241    9.7618    9.1807    8.9823
    9.2887    9.9635   10.8295   11.7651   12.6733   13.4419
   12.3438   12.8124   13.0479   12.8498   12.3653   11.8260
   11.3241   10.8952   10.5562   10.3161   10.1767   10.1223
   10.0502    9.6879    9.3456    9.3946    9.8121   10.4309
   11.1115   11.7651   12.3438   11.2316   11.6371   12.0107
   12.1932   11.9665   11.4964   10.9995   10.5562   10.1980
    9.9414    9.7969    9.7712    9.8624   10.0126    9.8437
    9.6482    9.7472   10.0488   10.4309   10.8295   11.2316
   10.1948   10.5021   10.8692   11.2402   11.4279   11.2015
   10.7603   10.3161    9.9414    9.6654    9.5052    9.4739
    9.5823    9.8366   10.2157   10.0198    9.7980    9.7472
    9.8121    9.9635   10.1948    9.3298    9.5052    9.7969
   10.1767   10.5790   10.7946   10.5790   10.1767    9.7969
    9.5052    9.3298    9.2887    9.3946    9.6482   10.0198
   10.4179   10.0198    9.6482    9.3946    9.2887    9.3298
    8.7911    8.7775    8.9295    9.2243    9.6286   10.0725
   10.3241   10.1223    9.7712    9.4739    9.2887    9.2409
    9.3390    9.5599    9.8147   10.0198   10.2157    9.8437
    9.3456    8.9823    8.7911    8.7722    8.5231    8.4568
    8.5750    8.8604    9.2794    9.7618   10.0502    9.8624
    9.5823    9.3946    9.3390    9.4039    9.5053    9.5599
    9.6482    9.8366   10.0126    9.6879    9.1807    8.7722
    9.2794    8.8604    8.5750    8.4568    8.5231    8.7722
    9.1807    9.6879   10.0126    9.8366    9.6482    9.5599
    9.5053    9.4039    9.3390    9.3946    9.5823    9.8624
   10.0502    9.7618    9.2794   10.0725    9.6286    9.2243
    8.9295    8.7775    8.7911    8.9823    9.3456    9.8437
   10.2157   10.0198    9.8147    9.5599    9.3390    9.2409
    9.2887    9.4739    9.7712   10.1223   10.3241   10.0725
   10.7946   10.5790   10.1767    9.7969    9.5052    9.3298
    9.2887    9.3946    9.6482   10.0198   10.4179   10.0198
    9.6482    9.3946    9.2887    9.3298    9.5052    9.7969
   10.1767   10.5790   10.7946   11.2015   11.4279   11.2402
   10.8692   10.5021   10.1948    9.9635    9.8121    9.7472
    9.7980   10.0198   10.2157    9.8366    9.5823    9.4739
    9.5052    9.6654    9.9414   10.3161   10.7603   11.2015
   11.4964   11.9665   12.1932   12.0107   11.6371   11.2316
   10.8295   10.4309   10.0488    9.7472    9.6482    9.8437
   10.0126    9.8624    9.7712    9.7969    9.9414   10.1980
   10.5562   10.9995   11.4964   11.8260   12.3653   12.8498
   13.0479   12.8124   12.3438   11.7651   11.1115   10.4309
    9.8121    9.3946    9.3456    9.6879   10.0502   10.1223
   10.1767   10.3161   10.5562   10.8952   11.3241   11.8260
   12.2262   12.7758   13.3415   13.8076   13.8930   13.4419
   12.6733   11.7651   10.8295    9.9635    9.2887    8.9823
    9.1807    9.7618   10.3241   10.5790   10.7603   10.9995
   11.3241   11.7358   12.2262   12.7008   13.2395   13.8157
   14.3626   14.6845   14.3577   13.4419   12.3438   11.2316
   10.1948    9.3298    8.7911    8.7722    9.2794   10.0725
   10.7946   11.2015   11.4964   11.8260   12.2262   12.7008
   11.2242   11.7358   12.3071   12.8913   13.3688   13.4419
   12.9171   12.1031   11.2325   10.4025    9.6963    9.2409
    9.2005    9.5957   10.0196   10.0725   10.1050   10.2299
   10.4606   10.7948   11.2242   11.7358   12.2262   12.7758
   13.3415   13.8076   13.8930   13.4419   12.6733   11.7651
   10.8295    9.9635    9.2887    8.9823    9.1807    9.7618
   10.3241   10.5790   10.7603   10.9995   11.3241   11.7358
   12.3071   12.7758   13.2863   13.7681   14.0084   13.8076
   13.3688   12.8124   12.0993   11.2199   10.2922    9.4739
    8.9471    8.9092    9.3768   10.1223   10.8143   11.2402
   11.5585   11.9018   12.3071   12.8913   13.3415   13.7681
   13.9824   13.7681   13.3415   12.8913   12.4585   12.0107
   11.4323   10.6332    9.7712    9.0870    8.8154    9.0870
    9.7712   10.6332   11.4323   12.0107   12.4585   12.8913
   13.3688   13.8076   14.0084   13.7681   13.2863   12.7758
   12.3071   11.9018   11.5585   11.2402   10.8143   10.1223
    9.3768    8.9092    8.9471    9.4739   10.2922   11.2199
   12.0993   12.8124   13.3688   13.4419   13.8930   13.8076
   13.3415   12.7758   12.2262   11.7358   11.3241   10.9995
   10.7603   10.5790   10.3241    9.7618    9.1807    8.9823
    9.2887    9.9635   10.8295   11.7651   12.6733   13.4419
   12.9171   13.4419   13.3688   12.8913   12.3071   11.7358
   11.2242   10.7948   10.4606   10.2299   10.1050   10.0725
   10.0196    9.5957    9.2005    9.2409    9.6963   10.4025
   11.2325   12.1031   12.9171   12.1031   12.6733   12.8124
   12.4585   11.9018   11.3241   10.7948   10.3448    9.9919
    9.7487    9.6249    9.6286    9.7618    9.9578    9.5883
    9.3390    9.5103    9.9913   10.6453   11.3778   12.1031
   11.2325   11.7651   12.0993   12.0107   11.5585   10.9995
   10.4606    9.9919    9.6185    9.3572    9.2216    9.2243
    9.3768    9.6879   10.0564    9.5599    9.4298    9.6465
   10.0884   10.6453   11.2325   10.4025   10.8295   11.2199
   11.4323   11.2402   10.7603   10.2299    9.7487    9.3572
    9.0786    8.9309    8.9295    9.0870    9.4069    9.8437
    9.8147    9.4955    9.4485    9.6465    9.9913   10.4025
    9.6963    9.9635   10.2922   10.6332   10.8143   10.5790
   10.1050    9.6249    9.2216    8.9309    8.7765    8.7775
    8.9471    9.2845    9.7488   10.0198    9.7333    9.4955
    9.4298    9.5103    9.6963    9.2409    9.2887    9.4739
    9.7712   10.1223   10.3241   10.0725    9.6286    9.2243
    8.9295    8.7775    8.7911    8.9823    9.3456    9.8437
   10.2157   10.0198    9.8147    9.5599    9.3390    9.2409
    9.2005    8.9823    8.9471    9.0870    9.3768    9.7618
   10.0196    9.7618    9.3768    9.0870    8.9471    8.9823