
     Program PWSCF v.6.7MaX starts on  1Jul2021 at 22:35:50 

     This program is part of the open-source Quantum ESPRESSO suite
     for quantum simulation of materials; please cite
         "P. Giannozzi et al., J. Phys.:Condens. Matter 21 395502 (2009);
         "P. Giannozzi et al., J. Phys.:Condens. Matter 29 465901 (2017);
          URL http://www.quantum-espresso.org", 
     in publications or presentations arising from this work. More details at
     http://www.quantum-espresso.org/quote

     Serial version
     Waiting for input...
     Reading input from standard input

     Current dimensions of program PWSCF are:
     Max number of different atomic species (ntypx) = 10
     Max number of k-points (npk) =  40000
     Max angular momentum in pseudopotentials (lmaxx) =  3

     Atomic positions and unit cell read from directory:
     /home/elena/AEP_DFT/DFT/tmp/bands/Pb.save/

     file Pb.pbe-dn-rrkjus_psl.1.0.0.UPF: wavefunction(s)  6S 5D renormalized

     G-vector sticks info
     --------------------
     sticks:   dense  smooth     PW     G-vecs:    dense   smooth      PW
     Sum        1639     823    253                43895    15593    2685



     bravais-lattice index     =            2
     lattice parameter (alat)  =       9.2226  a.u.
     unit-cell volume          =     196.1075 (a.u.)^3
     number of atoms/cell      =            1
     number of atomic types    =            1
     number of electrons       =        14.00
     number of Kohn-Sham states=            8
     kinetic-energy cutoff     =      70.0000  Ry
     charge density cutoff     =     560.0000  Ry
     Exchange-correlation= PBE
                           (   1   4   3   4   0   0   0)

     celldm(1)=   9.222558  celldm(2)=   0.000000  celldm(3)=   0.000000
     celldm(4)=   0.000000  celldm(5)=   0.000000  celldm(6)=   0.000000

     crystal axes: (cart. coord. in units of alat)
               a(1) = (  -0.500000   0.000000   0.500000 )  
               a(2) = (   0.000000   0.500000   0.500000 )  
               a(3) = (  -0.500000   0.500000   0.000000 )  

     reciprocal axes: (cart. coord. in units 2 pi/alat)
               b(1) = ( -1.000000 -1.000000  1.000000 )  
               b(2) = (  1.000000  1.000000  1.000000 )  
               b(3) = ( -1.000000  1.000000 -1.000000 )  


     PseudoPot. # 1 for Pb read from file:
     /home/elena/qe-6.7/pseudo/Pb.pbe-dn-rrkjus_psl.1.0.0.UPF
     MD5 check sum: 1cf8f5e18580e6a90a35f98a53d336de
     Pseudo is Ultrasoft + core correction, Zval = 14.0
     Generated using &quot;atomic&quot; code by A. Dal Corso  v.6.3
     Using radial grid of 1281 points,  6 beta functions with: 
                l(1) =   0
                l(2) =   0
                l(3) =   1
                l(4) =   1
                l(5) =   2
                l(6) =   2
     Q(r) pseudized with 0 coefficients 


     atomic species   valence    mass     pseudopotential
        Pb            14.00   207.20000     Pb( 1.00)

     48 Sym. Ops., with inversion, found


                                    s                        frac. trans.

      isym =  1     identity                                     

 cryst.   s( 1) = (     1          0          0      )
                  (     0          1          0      )
                  (     0          0          1      )

 cart.    s( 1) = (  1.0000000  0.0000000  0.0000000 )
                  (  0.0000000  1.0000000  0.0000000 )
                  (  0.0000000  0.0000000  1.0000000 )


      isym =  2     180 deg rotation - cart. axis [0,0,1]        

 cryst.   s( 2) = (     0          1         -1      )
                  (     1          0         -1      )
                  (     0          0         -1      )

 cart.    s( 2) = ( -1.0000000  0.0000000  0.0000000 )
                  (  0.0000000 -1.0000000  0.0000000 )
                  (  0.0000000  0.0000000  1.0000000 )


      isym =  3     180 deg rotation - cart. axis [0,1,0]        

 cryst.   s( 3) = (    -1          0          0      )
                  (    -1          0          1      )
                  (    -1          1          0      )

 cart.    s( 3) = ( -1.0000000  0.0000000  0.0000000 )
                  (  0.0000000  1.0000000  0.0000000 )
                  (  0.0000000  0.0000000 -1.0000000 )


      isym =  4     180 deg rotation - cart. axis [1,0,0]        

 cryst.   s( 4) = (     0         -1          1      )
                  (     0         -1          0      )
                  (     1         -1          0      )

 cart.    s( 4) = (  1.0000000  0.0000000  0.0000000 )
                  (  0.0000000 -1.0000000  0.0000000 )
                  (  0.0000000  0.0000000 -1.0000000 )


      isym =  5     180 deg rotation - cart. axis [1,1,0]        

 cryst.   s( 5) = (     0         -1          0      )
                  (    -1          0          0      )
                  (     0          0         -1      )

 cart.    s( 5) = (  0.0000000  1.0000000  0.0000000 )
                  (  1.0000000  0.0000000  0.0000000 )
                  (  0.0000000  0.0000000 -1.0000000 )


      isym =  6     180 deg rotation - cart. axis [1,-1,0]       

 cryst.   s( 6) = (    -1          0          1      )
                  (     0         -1          1      )
                  (     0          0          1      )

 cart.    s( 6) = (  0.0000000 -1.0000000  0.0000000 )
                  ( -1.0000000  0.0000000  0.0000000 )
                  (  0.0000000  0.0000000 -1.0000000 )


      isym =  7      90 deg rotation - cart. axis [0,0,-1]       

 cryst.   s( 7) = (     0          1          0      )
                  (     0          1         -1      )
                  (    -1          1          0      )

 cart.    s( 7) = (  0.0000000  1.0000000  0.0000000 )
                  ( -1.0000000  0.0000000  0.0000000 )
                  (  0.0000000  0.0000000  1.0000000 )


      isym =  8      90 deg rotation - cart. axis [0,0,1]        

 cryst.   s( 8) = (     1          0         -1      )
                  (     1          0          0      )
                  (     1         -1          0      )

 cart.    s( 8) = (  0.0000000 -1.0000000  0.0000000 )
                  (  1.0000000  0.0000000  0.0000000 )
                  (  0.0000000  0.0000000  1.0000000 )


      isym =  9     180 deg rotation - cart. axis [1,0,1]        

 cryst.   s( 9) = (    -1          0          0      )
                  (     0          0         -1      )
                  (     0         -1          0      )

 cart.    s( 9) = (  0.0000000  0.0000000  1.0000000 )
                  (  0.0000000 -1.0000000  0.0000000 )
                  (  1.0000000  0.0000000  0.0000000 )


      isym = 10     180 deg rotation - cart. axis [-1,0,1]       

 cryst.   s(10) = (     1          0          0      )
                  (     1         -1          0      )
                  (     1          0         -1      )

 cart.    s(10) = (  0.0000000  0.0000000 -1.0000000 )
                  (  0.0000000 -1.0000000  0.0000000 )
                  ( -1.0000000  0.0000000  0.0000000 )


      isym = 11      90 deg rotation - cart. axis [0,1,0]        

 cryst.   s(11) = (     0          1         -1      )
                  (    -1          1          0      )
                  (     0          1          0      )

 cart.    s(11) = (  0.0000000  0.0000000  1.0000000 )
                  (  0.0000000  1.0000000  0.0000000 )
                  ( -1.0000000  0.0000000  0.0000000 )


      isym = 12      90 deg rotation - cart. axis [0,-1,0]       

 cryst.   s(12) = (     0         -1          1      )
                  (     0          0          1      )
                  (    -1          0          1      )

 cart.    s(12) = (  0.0000000  0.0000000 -1.0000000 )
                  (  0.0000000  1.0000000  0.0000000 )
                  (  1.0000000  0.0000000  0.0000000 )


      isym = 13     180 deg rotation - cart. axis [0,1,1]        

 cryst.   s(13) = (    -1          1          0      )
                  (     0          1          0      )
                  (     0          1         -1      )

 cart.    s(13) = ( -1.0000000  0.0000000  0.0000000 )
                  (  0.0000000  0.0000000  1.0000000 )
                  (  0.0000000  1.0000000  0.0000000 )


      isym = 14     180 deg rotation - cart. axis [0,1,-1]       

 cryst.   s(14) = (     0          0         -1      )
                  (     0         -1          0      )
                  (    -1          0          0      )

 cart.    s(14) = ( -1.0000000  0.0000000  0.0000000 )
                  (  0.0000000  0.0000000 -1.0000000 )
                  (  0.0000000 -1.0000000  0.0000000 )


      isym = 15      90 deg rotation - cart. axis [-1,0,0]       

 cryst.   s(15) = (     0          0          1      )
                  (    -1          0          1      )
                  (     0         -1          1      )

 cart.    s(15) = (  1.0000000  0.0000000  0.0000000 )
                  (  0.0000000  0.0000000  1.0000000 )
                  (  0.0000000 -1.0000000  0.0000000 )


      isym = 16      90 deg rotation - cart. axis [1,0,0]        

 cryst.   s(16) = (     1         -1          0      )
                  (     1          0         -1      )
                  (     1          0          0      )

 cart.    s(16) = (  1.0000000  0.0000000  0.0000000 )
                  (  0.0000000  0.0000000 -1.0000000 )
                  (  0.0000000  1.0000000  0.0000000 )


      isym = 17     120 deg rotation - cart. axis [-1,-1,-1]     

 cryst.   s(17) = (    -1          0          1      )
                  (    -1          1          0      )
                  (    -1          0          0      )

 cart.    s(17) = (  0.0000000  1.0000000  0.0000000 )
                  (  0.0000000  0.0000000  1.0000000 )
                  (  1.0000000  0.0000000  0.0000000 )


      isym = 18     120 deg rotation - cart. axis [-1,1,1]       

 cryst.   s(18) = (     0          1          0      )
                  (     0          0          1      )
                  (     1          0          0      )

 cart.    s(18) = (  0.0000000 -1.0000000  0.0000000 )
                  (  0.0000000  0.0000000  1.0000000 )
                  ( -1.0000000  0.0000000  0.0000000 )


      isym = 19     120 deg rotation - cart. axis [1,1,-1]       

 cryst.   s(19) = (     1          0         -1      )
                  (     0          0         -1      )
                  (     0          1         -1      )

 cart.    s(19) = (  0.0000000  1.0000000  0.0000000 )
                  (  0.0000000  0.0000000 -1.0000000 )
                  ( -1.0000000  0.0000000  0.0000000 )


      isym = 20     120 deg rotation - cart. axis [1,-1,1]       

 cryst.   s(20) = (     0         -1          0      )
                  (     1         -1          0      )
                  (     0         -1          1      )

 cart.    s(20) = (  0.0000000 -1.0000000  0.0000000 )
                  (  0.0000000  0.0000000 -1.0000000 )
                  (  1.0000000  0.0000000  0.0000000 )


      isym = 21     120 deg rotation - cart. axis [1,1,1]        

 cryst.   s(21) = (     0          0         -1      )
                  (     0          1         -1      )
                  (     1          0         -1      )

 cart.    s(21) = (  0.0000000  0.0000000  1.0000000 )
                  (  1.0000000  0.0000000  0.0000000 )
                  (  0.0000000  1.0000000  0.0000000 )


      isym = 22     120 deg rotation - cart. axis [-1,1,-1]      

 cryst.   s(22) = (    -1          1          0      )
                  (    -1          0          0      )
                  (    -1          0          1      )

 cart.    s(22) = (  0.0000000  0.0000000  1.0000000 )
                  ( -1.0000000  0.0000000  0.0000000 )
                  (  0.0000000 -1.0000000  0.0000000 )


      isym = 23     120 deg rotation - cart. axis [1,-1,-1]      

 cryst.   s(23) = (     0          0          1      )
                  (     1          0          0      )
                  (     0          1          0      )

 cart.    s(23) = (  0.0000000  0.0000000 -1.0000000 )
                  ( -1.0000000  0.0000000  0.0000000 )
                  (  0.0000000  1.0000000  0.0000000 )


      isym = 24     120 deg rotation - cart. axis [-1,-1,1]      

 cryst.   s(24) = (     1         -1          0      )
                  (     0         -1          1      )
                  (     0         -1          0      )

 cart.    s(24) = (  0.0000000  0.0000000 -1.0000000 )
                  (  1.0000000  0.0000000  0.0000000 )
                  (  0.0000000 -1.0000000  0.0000000 )


      isym = 25     inversion                                    

 cryst.   s(25) = (    -1          0          0      )
                  (     0         -1          0      )
                  (     0          0         -1      )

 cart.    s(25) = ( -1.0000000  0.0000000  0.0000000 )
                  (  0.0000000 -1.0000000  0.0000000 )
                  (  0.0000000  0.0000000 -1.0000000 )


      isym = 26     inv. 180 deg rotation - cart. axis [0,0,1]   

 cryst.   s(26) = (     0         -1          1      )
                  (    -1          0          1      )
                  (     0          0          1      )

 cart.    s(26) = (  1.0000000  0.0000000  0.0000000 )
                  (  0.0000000  1.0000000  0.0000000 )
                  (  0.0000000  0.0000000 -1.0000000 )


      isym = 27     inv. 180 deg rotation - cart. axis [0,1,0]   

 cryst.   s(27) = (     1          0          0      )
                  (     1          0         -1      )
                  (     1         -1          0      )

 cart.    s(27) = (  1.0000000  0.0000000  0.0000000 )
                  (  0.0000000 -1.0000000  0.0000000 )
                  (  0.0000000  0.0000000  1.0000000 )


      isym = 28     inv. 180 deg rotation - cart. axis [1,0,0]   

 cryst.   s(28) = (     0          1         -1      )
                  (     0          1          0      )
                  (    -1          1          0      )

 cart.    s(28) = ( -1.0000000  0.0000000  0.0000000 )
                  (  0.0000000  1.0000000  0.0000000 )
                  (  0.0000000  0.0000000  1.0000000 )


      isym = 29     inv. 180 deg rotation - cart. axis [1,1,0]   

 cryst.   s(29) = (     0          1          0      )
                  (     1          0          0      )
                  (     0          0          1      )

 cart.    s(29) = (  0.0000000 -1.0000000  0.0000000 )
                  ( -1.0000000  0.0000000  0.0000000 )
                  (  0.0000000  0.0000000  1.0000000 )


      isym = 30     inv. 180 deg rotation - cart. axis [1,-1,0]  

 cryst.   s(30) = (     1          0         -1      )
                  (     0          1         -1      )
                  (     0          0         -1      )

 cart.    s(30) = (  0.0000000  1.0000000  0.0000000 )
                  (  1.0000000  0.0000000  0.0000000 )
                  (  0.0000000  0.0000000  1.0000000 )


      isym = 31     inv.  90 deg rotation - cart. axis [0,0,-1]  

 cryst.   s(31) = (     0         -1          0      )
                  (     0         -1          1      )
                  (     1         -1          0      )

 cart.    s(31) = (  0.0000000 -1.0000000  0.0000000 )
                  (  1.0000000  0.0000000  0.0000000 )
                  (  0.0000000  0.0000000 -1.0000000 )


      isym = 32     inv.  90 deg rotation - cart. axis [0,0,1]   

 cryst.   s(32) = (    -1          0          1      )
                  (    -1          0          0      )
                  (    -1          1          0      )

 cart.    s(32) = (  0.0000000  1.0000000  0.0000000 )
                  ( -1.0000000  0.0000000  0.0000000 )
                  (  0.0000000  0.0000000 -1.0000000 )


      isym = 33     inv. 180 deg rotation - cart. axis [1,0,1]   

 cryst.   s(33) = (     1          0          0      )
                  (     0          0          1      )
                  (     0          1          0      )

 cart.    s(33) = (  0.0000000  0.0000000 -1.0000000 )
                  (  0.0000000  1.0000000  0.0000000 )
                  ( -1.0000000  0.0000000  0.0000000 )


      isym = 34     inv. 180 deg rotation - cart. axis [-1,0,1]  

 cryst.   s(34) = (    -1          0          0      )
                  (    -1          1          0      )
                  (    -1          0          1      )

 cart.    s(34) = (  0.0000000  0.0000000  1.0000000 )
                  (  0.0000000  1.0000000  0.0000000 )
                  (  1.0000000  0.0000000  0.0000000 )


      isym = 35     inv.  90 deg rotation - cart. axis [0,1,0]   

 cryst.   s(35) = (     0         -1          1      )
                  (     1         -1          0      )
                  (     0         -1          0      )

 cart.    s(35) = (  0.0000000  0.0000000 -1.0000000 )
                  (  0.0000000 -1.0000000  0.0000000 )
                  (  1.0000000  0.0000000  0.0000000 )


      isym = 36     inv.  90 deg rotation - cart. axis [0,-1,0]  

 cryst.   s(36) = (     0          1         -1      )
                  (     0          0         -1      )
                  (     1          0         -1      )

 cart.    s(36) = (  0.0000000  0.0000000  1.0000000 )
                  (  0.0000000 -1.0000000  0.0000000 )
                  ( -1.0000000  0.0000000  0.0000000 )


      isym = 37     inv. 180 deg rotation - cart. axis [0,1,1]   

 cryst.   s(37) = (     1         -1          0      )
                  (     0         -1          0      )
                  (     0         -1          1      )

 cart.    s(37) = (  1.0000000  0.0000000  0.0000000 )
                  (  0.0000000  0.0000000 -1.0000000 )
                  (  0.0000000 -1.0000000  0.0000000 )


      isym = 38     inv. 180 deg rotation - cart. axis [0,1,-1]  

 cryst.   s(38) = (     0          0          1      )
                  (     0          1          0      )
                  (     1          0          0      )

 cart.    s(38) = (  1.0000000  0.0000000  0.0000000 )
                  (  0.0000000  0.0000000  1.0000000 )
                  (  0.0000000  1.0000000  0.0000000 )


      isym = 39     inv.  90 deg rotation - cart. axis [-1,0,0]  

 cryst.   s(39) = (     0          0         -1      )
                  (     1          0         -1      )
                  (     0          1         -1      )

 cart.    s(39) = ( -1.0000000  0.0000000  0.0000000 )
                  (  0.0000000  0.0000000 -1.0000000 )
                  (  0.0000000  1.0000000  0.0000000 )


      isym = 40     inv.  90 deg rotation - cart. axis [1,0,0]   

 cryst.   s(40) = (    -1          1          0      )
                  (    -1          0          1      )
                  (    -1          0          0      )

 cart.    s(40) = ( -1.0000000  0.0000000  0.0000000 )
                  (  0.0000000  0.0000000  1.0000000 )
                  (  0.0000000 -1.0000000  0.0000000 )


      isym = 41     inv. 120 deg rotation - cart. axis [-1,-1,-1]

 cryst.   s(41) = (     1          0         -1      )
                  (     1         -1          0      )
                  (     1          0          0      )

 cart.    s(41) = (  0.0000000 -1.0000000  0.0000000 )
                  (  0.0000000  0.0000000 -1.0000000 )
                  ( -1.0000000  0.0000000  0.0000000 )


      isym = 42     inv. 120 deg rotation - cart. axis [-1,1,1]  

 cryst.   s(42) = (     0         -1          0      )
                  (     0          0         -1      )
                  (    -1          0          0      )

 cart.    s(42) = (  0.0000000  1.0000000  0.0000000 )
                  (  0.0000000  0.0000000 -1.0000000 )
                  (  1.0000000  0.0000000  0.0000000 )


      isym = 43     inv. 120 deg rotation - cart. axis [1,1,-1]  

 cryst.   s(43) = (    -1          0          1      )
                  (     0          0          1      )
                  (     0         -1          1      )

 cart.    s(43) = (  0.0000000 -1.0000000  0.0000000 )
                  (  0.0000000  0.0000000  1.0000000 )
                  (  1.0000000  0.0000000  0.0000000 )


      isym = 44     inv. 120 deg rotation - cart. axis [1,-1,1]  

 cryst.   s(44) = (     0          1          0      )
                  (    -1          1          0      )
                  (     0          1         -1      )

 cart.    s(44) = (  0.0000000  1.0000000  0.0000000 )
                  (  0.0000000  0.0000000  1.0000000 )
                  ( -1.0000000  0.0000000  0.0000000 )


      isym = 45     inv. 120 deg rotation - cart. axis [1,1,1]   

 cryst.   s(45) = (     0          0          1      )
                  (     0         -1          1      )
                  (    -1          0          1      )

 cart.    s(45) = (  0.0000000  0.0000000 -1.0000000 )
                  ( -1.0000000  0.0000000  0.0000000 )
                  (  0.0000000 -1.0000000  0.0000000 )


      isym = 46     inv. 120 deg rotation - cart. axis [-1,1,-1] 

 cryst.   s(46) = (     1         -1          0      )
                  (     1          0          0      )
                  (     1          0         -1      )

 cart.    s(46) = (  0.0000000  0.0000000 -1.0000000 )
                  (  1.0000000  0.0000000  0.0000000 )
                  (  0.0000000  1.0000000  0.0000000 )


      isym = 47     inv. 120 deg rotation - cart. axis [1,-1,-1] 

 cryst.   s(47) = (     0          0         -1      )
                  (    -1          0          0      )
                  (     0         -1          0      )

 cart.    s(47) = (  0.0000000  0.0000000  1.0000000 )
                  (  1.0000000  0.0000000  0.0000000 )
                  (  0.0000000 -1.0000000  0.0000000 )


      isym = 48     inv. 120 deg rotation - cart. axis [-1,-1,1] 

 cryst.   s(48) = (    -1          1          0      )
                  (     0          1         -1      )
                  (     0          1          0      )

 cart.    s(48) = (  0.0000000  0.0000000  1.0000000 )
                  ( -1.0000000  0.0000000  0.0000000 )
                  (  0.0000000  1.0000000  0.0000000 )


     point group O_h (m-3m) 
     there are 10 classes
     the character table:

       E     8C3   3C2   6C4   6C2'  i     8S6   3s_h  6S4   6s_d 
A_1g   1.00  1.00  1.00  1.00  1.00  1.00  1.00  1.00  1.00  1.00
A_2g   1.00  1.00  1.00 -1.00 -1.00  1.00  1.00  1.00 -1.00 -1.00
E_g    2.00 -1.00  2.00  0.00  0.00  2.00 -1.00  2.00  0.00  0.00
T_1g   3.00  0.00 -1.00  1.00 -1.00  3.00  0.00 -1.00  1.00 -1.00
T_2g   3.00  0.00 -1.00 -1.00  1.00  3.00  0.00 -1.00 -1.00  1.00
A_1u   1.00  1.00  1.00  1.00  1.00 -1.00 -1.00 -1.00 -1.00 -1.00
A_2u   1.00  1.00  1.00 -1.00 -1.00 -1.00 -1.00 -1.00  1.00  1.00
E_u    2.00 -1.00  2.00  0.00  0.00 -2.00  1.00 -2.00  0.00  0.00
T_1u   3.00  0.00 -1.00  1.00 -1.00 -3.00  0.00  1.00 -1.00  1.00
T_2u   3.00  0.00 -1.00 -1.00  1.00 -3.00  0.00  1.00  1.00 -1.00

     the symmetry operations in each class and the name of the first element:

     E        1
          identity                                               
     8C3     17   19   20   18   24   21   22   23
          120 deg rotation - cart. axis [-1,-1,-1]               
     3C2      2    4    3
          180 deg rotation - cart. axis [0,0,1]                  
     6C4      7    8   15   16   12   11
           90 deg rotation - cart. axis [0,0,-1]                 
     6C2'     5    6   14   13   10    9
          180 deg rotation - cart. axis [1,1,0]                  
     i       25
          inversion                                              
     8S6     41   43   44   42   48   45   46   47
          inv. 120 deg rotation - cart. axis [-1,-1,-1]          
     3s_h    26   28   27
          inv. 180 deg rotation - cart. axis [0,0,1]             
     6S4     31   32   39   40   36   35
          inv.  90 deg rotation - cart. axis [0,0,-1]            
     6s_d    29   30   38   37   34   33
          inv. 180 deg rotation - cart. axis [1,1,0]             

   Cartesian axes

     site n.     atom                  positions (alat units)
         1           Pb  tau(   1) = (   0.0000000   0.0000000   0.0000000  )

   Crystallographic axes

     site n.     atom                  positions (cryst. coord.)
         1           Pb  tau(   1) = (  0.0000000  0.0000000  0.0000000  )

     number of k points=    72 (tetrahedron method)
                       cart. coord. in units 2pi/alat
        k(    1) = (   0.0000000   0.0000000   0.0000000), wk =   0.0011574
        k(    2) = (  -0.0833333   0.0833333  -0.0833333), wk =   0.0092593
        k(    3) = (  -0.1666667   0.1666667  -0.1666667), wk =   0.0092593
        k(    4) = (  -0.2500000   0.2500000  -0.2500000), wk =   0.0092593
        k(    5) = (  -0.3333333   0.3333333  -0.3333333), wk =   0.0092593
        k(    6) = (  -0.4166667   0.4166667  -0.4166667), wk =   0.0092593
        k(    7) = (   0.5000000  -0.5000000   0.5000000), wk =   0.0046296
        k(    8) = (   0.0000000   0.1666667   0.0000000), wk =   0.0069444
        k(    9) = (  -0.0833333   0.2500000  -0.0833333), wk =   0.0277778
        k(   10) = (  -0.1666667   0.3333333  -0.1666667), wk =   0.0277778
        k(   11) = (  -0.2500000   0.4166667  -0.2500000), wk =   0.0277778
        k(   12) = (  -0.3333333   0.5000000  -0.3333333), wk =   0.0277778
        k(   13) = (   0.5833333  -0.4166667   0.5833333), wk =   0.0277778
        k(   14) = (   0.5000000  -0.3333333   0.5000000), wk =   0.0277778
        k(   15) = (   0.4166667  -0.2500000   0.4166667), wk =   0.0277778
        k(   16) = (   0.3333333  -0.1666667   0.3333333), wk =   0.0277778
        k(   17) = (   0.2500000  -0.0833333   0.2500000), wk =   0.0277778
        k(   18) = (   0.1666667  -0.0000000   0.1666667), wk =   0.0138889
        k(   19) = (   0.0000000   0.3333333   0.0000000), wk =   0.0069444
        k(   20) = (  -0.0833333   0.4166667  -0.0833333), wk =   0.0277778
        k(   21) = (  -0.1666667   0.5000000  -0.1666667), wk =   0.0277778
        k(   22) = (  -0.2500000   0.5833333  -0.2500000), wk =   0.0277778
        k(   23) = (   0.6666667  -0.3333333   0.6666667), wk =   0.0277778
        k(   24) = (   0.5833333  -0.2500000   0.5833333), wk =   0.0277778
        k(   25) = (   0.5000000  -0.1666667   0.5000000), wk =   0.0277778
        k(   26) = (   0.4166667  -0.0833333   0.4166667), wk =   0.0277778
        k(   27) = (   0.3333333   0.0000000   0.3333333), wk =   0.0138889
        k(   28) = (   0.0000000   0.5000000   0.0000000), wk =   0.0069444
        k(   29) = (  -0.0833333   0.5833333  -0.0833333), wk =   0.0277778
        k(   30) = (  -0.1666667   0.6666667  -0.1666667), wk =   0.0277778
        k(   31) = (   0.7500000  -0.2500000   0.7500000), wk =   0.0277778
        k(   32) = (   0.6666667  -0.1666667   0.6666667), wk =   0.0277778
        k(   33) = (   0.5833333  -0.0833333   0.5833333), wk =   0.0277778
        k(   34) = (   0.5000000   0.0000000   0.5000000), wk =   0.0138889
        k(   35) = (   0.0000000   0.6666667   0.0000000), wk =   0.0069444
        k(   36) = (  -0.0833333   0.7500000  -0.0833333), wk =   0.0277778
        k(   37) = (   0.8333333  -0.1666667   0.8333333), wk =   0.0277778
        k(   38) = (   0.7500000  -0.0833333   0.7500000), wk =   0.0277778
        k(   39) = (   0.6666667   0.0000000   0.6666667), wk =   0.0138889
        k(   40) = (   0.0000000   0.8333333   0.0000000), wk =   0.0069444
        k(   41) = (   0.9166667  -0.0833333   0.9166667), wk =   0.0277778
        k(   42) = (   0.8333333   0.0000000   0.8333333), wk =   0.0138889
        k(   43) = (   0.0000000  -1.0000000   0.0000000), wk =   0.0034722
        k(   44) = (  -0.1666667   0.3333333   0.0000000), wk =   0.0277778
        k(   45) = (  -0.2500000   0.4166667  -0.0833333), wk =   0.0555556
        k(   46) = (  -0.3333333   0.5000000  -0.1666667), wk =   0.0555556
        k(   47) = (   0.5833333  -0.4166667   0.7500000), wk =   0.0555556
        k(   48) = (   0.5000000  -0.3333333   0.6666667), wk =   0.0277778
        k(   49) = (  -0.1666667   0.5000000   0.0000000), wk =   0.0277778
        k(   50) = (  -0.2500000   0.5833333  -0.0833333), wk =   0.0555556
        k(   51) = (   0.6666667  -0.3333333   0.8333333), wk =   0.0555556
        k(   52) = (   0.5833333  -0.2500000   0.7500000), wk =   0.0555556
        k(   53) = (   0.5000000  -0.1666667   0.6666667), wk =   0.0555556
        k(   54) = (   0.4166667  -0.0833333   0.5833333), wk =   0.0555556
        k(   55) = (   0.3333333   0.0000000   0.5000000), wk =   0.0277778
        k(   56) = (  -0.1666667   0.6666667  -0.0000000), wk =   0.0277778
        k(   57) = (   0.7500000  -0.2500000   0.9166667), wk =   0.0555556
        k(   58) = (   0.6666667  -0.1666667   0.8333333), wk =   0.0555556
        k(   59) = (   0.5833333  -0.0833333   0.7500000), wk =   0.0555556
        k(   60) = (   0.5000000   0.0000000   0.6666667), wk =   0.0277778
        k(   61) = (   0.8333333  -0.1666667   1.0000000), wk =   0.0277778
        k(   62) = (   0.7500000  -0.0833333   0.9166667), wk =   0.0555556
        k(   63) = (   0.6666667   0.0000000   0.8333333), wk =   0.0277778
        k(   64) = (  -0.1666667  -1.0000000   0.0000000), wk =   0.0138889
        k(   65) = (   0.6666667  -0.3333333   1.0000000), wk =   0.0277778
        k(   66) = (   0.5833333  -0.2500000   0.9166667), wk =   0.0555556
        k(   67) = (   0.5000000  -0.1666667   0.8333333), wk =   0.0277778
        k(   68) = (   0.6666667  -0.1666667   1.0000000), wk =   0.0277778
        k(   69) = (   0.5833333  -0.0833333   0.9166667), wk =   0.0555556
        k(   70) = (   0.5000000   0.0000000   0.8333333), wk =   0.0277778
        k(   71) = (  -0.3333333  -1.0000000   0.0000000), wk =   0.0138889
        k(   72) = (  -0.5000000  -1.0000000   0.0000000), wk =   0.0069444

                       cryst. coord.
        k(    1) = (   0.0000000   0.0000000   0.0000000), wk =   0.0011574
        k(    2) = (   0.0000000   0.0000000   0.0833333), wk =   0.0092593
        k(    3) = (   0.0000000   0.0000000   0.1666667), wk =   0.0092593
        k(    4) = (   0.0000000   0.0000000   0.2500000), wk =   0.0092593
        k(    5) = (   0.0000000   0.0000000   0.3333333), wk =   0.0092593
        k(    6) = (   0.0000000   0.0000000   0.4166667), wk =   0.0092593
        k(    7) = (   0.0000000   0.0000000  -0.5000000), wk =   0.0046296
        k(    8) = (   0.0000000   0.0833333   0.0833333), wk =   0.0069444
        k(    9) = (   0.0000000   0.0833333   0.1666667), wk =   0.0277778
        k(   10) = (   0.0000000   0.0833333   0.2500000), wk =   0.0277778
        k(   11) = (   0.0000000   0.0833333   0.3333333), wk =   0.0277778
        k(   12) = (   0.0000000   0.0833333   0.4166667), wk =   0.0277778
        k(   13) = (   0.0000000   0.0833333  -0.5000000), wk =   0.0277778
        k(   14) = (   0.0000000   0.0833333  -0.4166667), wk =   0.0277778
        k(   15) = (   0.0000000   0.0833333  -0.3333333), wk =   0.0277778
        k(   16) = (   0.0000000   0.0833333  -0.2500000), wk =   0.0277778
        k(   17) = (   0.0000000   0.0833333  -0.1666667), wk =   0.0277778
        k(   18) = (   0.0000000   0.0833333  -0.0833333), wk =   0.0138889
        k(   19) = (   0.0000000   0.1666667   0.1666667), wk =   0.0069444
        k(   20) = (   0.0000000   0.1666667   0.2500000), wk =   0.0277778
        k(   21) = (   0.0000000   0.1666667   0.3333333), wk =   0.0277778
        k(   22) = (   0.0000000   0.1666667   0.4166667), wk =   0.0277778
        k(   23) = (   0.0000000   0.1666667  -0.5000000), wk =   0.0277778
        k(   24) = (   0.0000000   0.1666667  -0.4166667), wk =   0.0277778
        k(   25) = (   0.0000000   0.1666667  -0.3333333), wk =   0.0277778
        k(   26) = (   0.0000000   0.1666667  -0.2500000), wk =   0.0277778
        k(   27) = (   0.0000000   0.1666667  -0.1666667), wk =   0.0138889
        k(   28) = (   0.0000000   0.2500000   0.2500000), wk =   0.0069444
        k(   29) = (   0.0000000   0.2500000   0.3333333), wk =   0.0277778
        k(   30) = (   0.0000000   0.2500000   0.4166667), wk =   0.0277778
        k(   31) = (   0.0000000   0.2500000  -0.5000000), wk =   0.0277778
        k(   32) = (   0.0000000   0.2500000  -0.4166667), wk =   0.0277778
        k(   33) = (   0.0000000   0.2500000  -0.3333333), wk =   0.0277778
        k(   34) = (   0.0000000   0.2500000  -0.2500000), wk =   0.0138889
        k(   35) = (   0.0000000   0.3333333   0.3333333), wk =   0.0069444
        k(   36) = (   0.0000000   0.3333333   0.4166667), wk =   0.0277778
        k(   37) = (   0.0000000   0.3333333  -0.5000000), wk =   0.0277778
        k(   38) = (   0.0000000   0.3333333  -0.4166667), wk =   0.0277778
        k(   39) = (   0.0000000   0.3333333  -0.3333333), wk =   0.0138889
        k(   40) = (   0.0000000   0.4166667   0.4166667), wk =   0.0069444
        k(   41) = (   0.0000000   0.4166667  -0.5000000), wk =   0.0277778
        k(   42) = (   0.0000000   0.4166667  -0.4166667), wk =   0.0138889
        k(   43) = (   0.0000000  -0.5000000  -0.5000000), wk =   0.0034722
        k(   44) = (   0.0833333   0.1666667   0.2500000), wk =   0.0277778
        k(   45) = (   0.0833333   0.1666667   0.3333333), wk =   0.0555556
        k(   46) = (   0.0833333   0.1666667   0.4166667), wk =   0.0555556
        k(   47) = (   0.0833333   0.1666667  -0.5000000), wk =   0.0555556
        k(   48) = (   0.0833333   0.1666667  -0.4166667), wk =   0.0277778
        k(   49) = (   0.0833333   0.2500000   0.3333333), wk =   0.0277778
        k(   50) = (   0.0833333   0.2500000   0.4166667), wk =   0.0555556
        k(   51) = (   0.0833333   0.2500000  -0.5000000), wk =   0.0555556
        k(   52) = (   0.0833333   0.2500000  -0.4166667), wk =   0.0555556
        k(   53) = (   0.0833333   0.2500000  -0.3333333), wk =   0.0555556
        k(   54) = (   0.0833333   0.2500000  -0.2500000), wk =   0.0555556
        k(   55) = (   0.0833333   0.2500000  -0.1666667), wk =   0.0277778
        k(   56) = (   0.0833333   0.3333333   0.4166667), wk =   0.0277778
        k(   57) = (   0.0833333   0.3333333  -0.5000000), wk =   0.0555556
        k(   58) = (   0.0833333   0.3333333  -0.4166667), wk =   0.0555556
        k(   59) = (   0.0833333   0.3333333  -0.3333333), wk =   0.0555556
        k(   60) = (   0.0833333   0.3333333  -0.2500000), wk =   0.0277778
        k(   61) = (   0.0833333   0.4166667  -0.5000000), wk =   0.0277778
        k(   62) = (   0.0833333   0.4166667  -0.4166667), wk =   0.0555556
        k(   63) = (   0.0833333   0.4166667  -0.3333333), wk =   0.0277778
        k(   64) = (   0.0833333  -0.5000000  -0.4166667), wk =   0.0138889
        k(   65) = (   0.1666667   0.3333333  -0.5000000), wk =   0.0277778
        k(   66) = (   0.1666667   0.3333333  -0.4166667), wk =   0.0555556
        k(   67) = (   0.1666667   0.3333333  -0.3333333), wk =   0.0277778
        k(   68) = (   0.1666667   0.4166667  -0.4166667), wk =   0.0277778
        k(   69) = (   0.1666667   0.4166667  -0.3333333), wk =   0.0555556
        k(   70) = (   0.1666667   0.4166667  -0.2500000), wk =   0.0277778
        k(   71) = (   0.1666667  -0.5000000  -0.3333333), wk =   0.0138889
        k(   72) = (   0.2500000  -0.5000000  -0.2500000), wk =   0.0069444

     Dense  grid:    43895 G-vectors     FFT dimensions: (  50,  50,  50)

     Smooth grid:    15593 G-vectors     FFT dimensions: (  36,  36,  36)

     Dynamical RAM for                 wfc:       0.24 MB

     Dynamical RAM for     wfc (w. buffer):       0.24 MB

     Dynamical RAM for           str. fact:       0.67 MB

     Dynamical RAM for           local pot:       0.00 MB

     Dynamical RAM for          nlocal pot:       0.53 MB

     Dynamical RAM for                qrad:       1.90 MB

     Dynamical RAM for          rho,v,vnew:       4.87 MB

     Dynamical RAM for           G-vectors:       2.63 MB

     Dynamical RAM for          h,s,v(r/c):       0.01 MB

     Dynamical RAM for          <psi|beta>:       0.00 MB

     Dynamical RAM for                 psi:       0.47 MB

     Dynamical RAM for                hpsi:       0.47 MB

     Dynamical RAM for                spsi:       0.47 MB

     Dynamical RAM for      wfcinit/wfcrot:       0.53 MB

     Dynamical RAM for           addusdens:     125.25 MB

     Estimated static dynamical RAM per process >      16.95 MB

     Estimated max dynamical RAM per process >     142.20 MB

     The potential is recalculated from file :
     /home/elena/AEP_DFT/DFT/tmp/bands/Pb.save/charge-density

     Starting wfcs are    9 randomized atomic wfcs

     Band Structure Calculation
     Davidson diagonalization with overlap

     Computing kpt #:     1  of    72
     total cpu time spent up to now is        1.1 secs

     Computing kpt #:     2  of    72
     total cpu time spent up to now is        1.4 secs

     Computing kpt #:     3  of    72
     total cpu time spent up to now is        1.7 secs

     Computing kpt #:     4  of    72
     total cpu time spent up to now is        1.9 secs

     Computing kpt #:     5  of    72
     total cpu time spent up to now is        2.2 secs

     Computing kpt #:     6  of    72
     total cpu time spent up to now is        2.4 secs

     Computing kpt #:     7  of    72
     total cpu time spent up to now is        2.6 secs

     Computing kpt #:     8  of    72
     total cpu time spent up to now is        2.8 secs

     Computing kpt #:     9  of    72
     total cpu time spent up to now is        3.0 secs

     Computing kpt #:    10  of    72
     total cpu time spent up to now is        3.2 secs

     Computing kpt #:    11  of    72
     total cpu time spent up to now is        3.4 secs

     Computing kpt #:    12  of    72
     total cpu time spent up to now is        3.7 secs

     Computing kpt #:    13  of    72
     total cpu time spent up to now is        3.9 secs

     Computing kpt #:    14  of    72
     total cpu time spent up to now is        4.0 secs

     Computing kpt #:    15  of    72
     total cpu time spent up to now is        4.2 secs

     Computing kpt #:    16  of    72
     total cpu time spent up to now is        4.4 secs

     Computing kpt #:    17  of    72
     total cpu time spent up to now is        4.6 secs

     Computing kpt #:    18  of    72
     total cpu time spent up to now is        4.8 secs

     Computing kpt #:    19  of    72
     total cpu time spent up to now is        5.0 secs

     Computing kpt #:    20  of    72
     total cpu time spent up to now is        5.4 secs

     Computing kpt #:    21  of    72
     total cpu time spent up to now is        5.7 secs

     Computing kpt #:    22  of    72
     total cpu time spent up to now is        5.9 secs

     Computing kpt #:    23  of    72
     total cpu time spent up to now is        6.1 secs

     Computing kpt #:    24  of    72
     total cpu time spent up to now is        6.3 secs

     Computing kpt #:    25  of    72
     total cpu time spent up to now is        6.4 secs

     Computing kpt #:    26  of    72
     total cpu time spent up to now is        6.6 secs

     Computing kpt #:    27  of    72
     total cpu time spent up to now is        6.8 secs

     Computing kpt #:    28  of    72
     total cpu time spent up to now is        7.0 secs

     Computing kpt #:    29  of    72
     total cpu time spent up to now is        7.2 secs

     Computing kpt #:    30  of    72
     total cpu time spent up to now is        7.4 secs

     Computing kpt #:    31  of    72
     total cpu time spent up to now is        7.6 secs

     Computing kpt #:    32  of    72
     total cpu time spent up to now is        7.8 secs

     Computing kpt #:    33  of    72
     total cpu time spent up to now is        7.9 secs

     Computing kpt #:    34  of    72
     total cpu time spent up to now is        8.1 secs

     Computing kpt #:    35  of    72
     total cpu time spent up to now is        8.3 secs

     Computing kpt #:    36  of    72
     total cpu time spent up to now is        8.6 secs

     Computing kpt #:    37  of    72
     total cpu time spent up to now is        8.7 secs

     Computing kpt #:    38  of    72
     total cpu time spent up to now is        8.9 secs

     Computing kpt #:    39  of    72
     total cpu time spent up to now is        9.1 secs

     Computing kpt #:    40  of    72
     total cpu time spent up to now is        9.3 secs

     Computing kpt #:    41  of    72
     total cpu time spent up to now is        9.5 secs

     Computing kpt #:    42  of    72
     total cpu time spent up to now is        9.6 secs

     Computing kpt #:    43  of    72
     total cpu time spent up to now is        9.8 secs

     Computing kpt #:    44  of    72
     total cpu time spent up to now is       10.0 secs

     Computing kpt #:    45  of    72
     total cpu time spent up to now is       10.3 secs

     Computing kpt #:    46  of    72
     total cpu time spent up to now is       10.4 secs

     Computing kpt #:    47  of    72
     total cpu time spent up to now is       10.6 secs

     Computing kpt #:    48  of    72
     total cpu time spent up to now is       10.8 secs

     Computing kpt #:    49  of    72
     total cpu time spent up to now is       11.0 secs

     Computing kpt #:    50  of    72
     total cpu time spent up to now is       11.2 secs

     Computing kpt #:    51  of    72
     total cpu time spent up to now is       11.4 secs

     Computing kpt #:    52  of    72
     total cpu time spent up to now is       11.6 secs

     Computing kpt #:    53  of    72
     total cpu time spent up to now is       11.8 secs

     Computing kpt #:    54  of    72
     total cpu time spent up to now is       12.1 secs

     Computing kpt #:    55  of    72
     total cpu time spent up to now is       12.3 secs

     Computing kpt #:    56  of    72
     total cpu time spent up to now is       12.6 secs

     Computing kpt #:    57  of    72
     total cpu time spent up to now is       12.8 secs

     Computing kpt #:    58  of    72
     total cpu time spent up to now is       13.0 secs

     Computing kpt #:    59  of    72
     total cpu time spent up to now is       13.2 secs

     Computing kpt #:    60  of    72
     total cpu time spent up to now is       13.4 secs

     Computing kpt #:    61  of    72
     total cpu time spent up to now is       13.6 secs

     Computing kpt #:    62  of    72
     total cpu time spent up to now is       13.8 secs

     Computing kpt #:    63  of    72
     total cpu time spent up to now is       14.0 secs

     Computing kpt #:    64  of    72
     total cpu time spent up to now is       14.2 secs

     Computing kpt #:    65  of    72
     total cpu time spent up to now is       14.4 secs

     Computing kpt #:    66  of    72
     total cpu time spent up to now is       14.6 secs

     Computing kpt #:    67  of    72
     total cpu time spent up to now is       14.8 secs

     Computing kpt #:    68  of    72
     total cpu time spent up to now is       15.0 secs

     Computing kpt #:    69  of    72
     total cpu time spent up to now is       15.2 secs

     Computing kpt #:    70  of    72
     total cpu time spent up to now is       15.3 secs

     Computing kpt #:    71  of    72
     total cpu time spent up to now is       15.6 secs

     Computing kpt #:    72  of    72
     total cpu time spent up to now is       15.8 secs

     ethr =  7.14E-12,  avg # of iterations = 27.3

     Warning: ef = 11.959078 is above the highest band at k-point  33
              e  =  11.875513

     Warning: ef = 11.959078 is above the highest band at k-point  38
              e  =  10.978644

     Warning: ef = 11.959078 is above the highest band at k-point  39
              e  =  10.237030

     Warning: ef = 11.959078 is above the highest band at k-point  42
              e  =  11.744976

     Warning: ef = 11.959078 is above the highest band at k-point  58
              e  =  11.840816

     Warning: ef = 11.959078 is above the highest band at k-point  59
              e  =  11.145090

     Warning: ef = 11.959078 is above the highest band at k-point  60
              e  =  11.285948

     Warning: ef = 11.959078 is above the highest band at k-point  62
              e  =  11.947731

     Warning: ef = 11.959078 is above the highest band at k-point  63
              e  =  10.625037

     Warning: ef = 11.959078 is above the highest band at k-point  67
              e  =  11.881298

     Warning: ef = 11.959078 is above the highest band at k-point  69
              e  =  11.006090

     Warning: ef = 11.959078 is above the highest band at k-point  70
              e  =  10.637648

     Warning: ef = 11.959078 is above the highest band at k-point  71
              e  =  11.774544

     Warning: ef = 11.959078 is above the highest band at k-point  72
              e  =  10.416157

     total cpu time spent up to now is       15.9 secs

     End of band structure calculation

          k = 0.0000 0.0000 0.0000 (  1917 PWs)   bands (ev):

    -5.2362  -5.2362  -5.2362  -5.0771  -5.0771  -0.1825  19.6427  19.6427

     occupation numbers 
     1.0000   1.0000   1.0000   1.0000   1.0000   1.0000   0.0000   0.0000

          k =-0.0833 0.0833-0.0833 (  1947 PWs)   bands (ev):

    -5.2369  -5.2252  -5.2252  -5.0781  -5.0781  -0.0428  18.0441  19.4639

     occupation numbers 
     1.0000   1.0000   1.0000   1.0000   1.0000   1.0000   0.0000   0.0000

          k =-0.1667 0.1667-0.1667 (  1940 PWs)   bands (ev):

    -5.2404  -5.2030  -5.2030  -5.0712  -5.0712   0.3775  15.3525  19.0378

     occupation numbers 
     1.0000   1.0000   1.0000   1.0000   1.0000   1.0000  -0.0113   0.0000

          k =-0.2500 0.2500-0.2500 (  1949 PWs)   bands (ev):

    -5.2487  -5.1963  -5.1963  -5.0377  -5.0377   1.0754  12.6988  18.5454

     occupation numbers 
     1.0000   1.0000   1.0000   1.0000   1.0000   1.0000   0.1222   0.0000

          k =-0.3333 0.3333-0.3333 (  1940 PWs)   bands (ev):

    -5.2609  -5.2070  -5.2070  -4.9855  -4.9855   2.0215  10.3052  18.1126

     occupation numbers 
     1.0000   1.0000   1.0000   1.0000   1.0000   1.0000   1.0077   0.0000

          k =-0.4167 0.4167-0.4167 (  1937 PWs)   bands (ev):

    -5.2719  -5.2195  -5.2195  -4.9421  -4.9421   3.0856   8.3587  17.8197

     occupation numbers 
     1.0000   1.0000   1.0000   1.0000   1.0000   1.0000   1.0000   0.0000

          k = 0.5000-0.5000 0.5000 (  1946 PWs)   bands (ev):

    -5.2765  -5.2246  -5.2246  -4.9255  -4.9255   3.6995   7.4487  17.7163

     occupation numbers 
     1.0000   1.0000   1.0000   1.0000   1.0000   1.0000   1.0000   0.0000

          k = 0.0000 0.1667 0.0000 (  1941 PWs)   bands (ev):

    -5.2491  -5.2144  -5.2144  -5.0905  -5.0680   0.0037  18.5508  18.8520

     occupation numbers 
     1.0000   1.0000   1.0000   1.0000   1.0000   1.0000   0.0000   0.0000

          k =-0.0833 0.2500-0.0833 (  1944 PWs)   bands (ev):

    -5.2566  -5.1914  -5.1890  -5.1007  -5.0556   0.3304  16.2610  18.2012

     occupation numbers 
     1.0000   1.0000   1.0000   1.0000   1.0000   1.0000  -0.0000   0.0000

          k =-0.1667 0.3333-0.1667 (  1938 PWs)   bands (ev):

    -5.2586  -5.1838  -5.1746  -5.0857  -5.0244   0.9362  13.6202  17.6577

     occupation numbers 
     1.0000   1.0000   1.0000   1.0000   1.0000   1.0000  -0.0152   0.0000

          k =-0.2500 0.4167-0.2500 (  1941 PWs)   bands (ev):

    -5.2616  -5.1983  -5.1810  -5.0391  -4.9765   1.8029  11.1584  17.2970

     occupation numbers 
     1.0000   1.0000   1.0000   1.0000   1.0000   1.0000   0.8809   0.0000

          k =-0.3333 0.5000-0.3333 (  1939 PWs)   bands (ev):

    -5.2653  -5.2154  -5.1948  -4.9873  -4.9368   2.8478   9.0571  17.0717

     occupation numbers 
     1.0000   1.0000   1.0000   1.0000   1.0000   1.0000   1.0120   0.0000

          k = 0.5833-0.4167 0.5833 (  1941 PWs)   bands (ev):

    -5.2658  -5.2253  -5.2048  -4.9506  -4.9243   3.7126   7.7083  16.6056

     occupation numbers 
     1.0000   1.0000   1.0000   1.0000   1.0000   1.0000   1.0000   0.0000

          k = 0.5000-0.3333 0.5000 (  1939 PWs)   bands (ev):

    -5.2612  -5.2240  -5.2054  -4.9454  -4.9409   3.4938   8.0261  16.3438

     occupation numbers 
     1.0000   1.0000   1.0000   1.0000   1.0000   1.0000   1.0000  -0.0000

          k = 0.4167-0.2500 0.4167 (  1936 PWs)   bands (ev):

    -5.2537  -5.2122  -5.1964  -4.9943  -4.9602   2.4899   9.7087  16.3213

     occupation numbers 
     1.0000   1.0000   1.0000   1.0000   1.0000   1.0000   1.0373   0.0000

          k = 0.3333-0.1667 0.3333 (  1938 PWs)   bands (ev):

    -5.2472  -5.1969  -5.1835  -5.0537  -4.9990   1.4874  11.9490  16.5443

     occupation numbers 
     1.0000   1.0000   1.0000   1.0000   1.0000   1.0000   0.5011   0.0000

          k = 0.2500-0.0833 0.2500 (  1942 PWs)   bands (ev):

    -5.2438  -5.1906  -5.1858  -5.0918  -5.0394   0.7038  14.4631  17.0182

     occupation numbers 
     1.0000   1.0000   1.0000   1.0000   1.0000   1.0000  -0.0391   0.0000

          k = 0.1667-0.0000 0.1667 (  1945 PWs)   bands (ev):

    -5.2417  -5.2111  -5.2037  -5.0904  -5.0648   0.1905  16.8446  17.9281

     occupation numbers 
     1.0000   1.0000   1.0000   1.0000   1.0000   1.0000   0.0000   0.0000

          k = 0.0000 0.3333 0.0000 (  1960 PWs)   bands (ev):

    -5.2837  -5.1536  -5.1536  -5.1299  -5.0428   0.5632  16.5930  17.3892

     occupation numbers 
     1.0000   1.0000   1.0000   1.0000   1.0000   1.0000   0.0000   0.0000

          k =-0.0833 0.4167-0.0833 (  1955 PWs)   bands (ev):

    -5.2966  -5.1617  -5.1250  -5.1085  -5.0165   1.0749  14.5098  16.7452

     occupation numbers 
     1.0000   1.0000   1.0000   1.0000   1.0000   1.0000  -0.0407   0.0000

          k =-0.1667 0.5000-0.1667 (  1943 PWs)   bands (ev):

    -5.2948  -5.1838  -5.1239  -5.0706  -4.9705   1.8519  12.1354  16.2387

     occupation numbers 
     1.0000   1.0000   1.0000   1.0000   1.0000   1.0000   0.4272   0.0000

          k =-0.2500 0.5833-0.2500 (  1943 PWs)   bands (ev):

    -5.2873  -5.1941  -5.1368  -5.0375  -4.9317   2.8359   9.9990  15.3996

     occupation numbers 
     1.0000   1.0000   1.0000   1.0000   1.0000   1.0000   1.0352  -0.0001

          k = 0.6667-0.3333 0.6667 (  1942 PWs)   bands (ev):

    -5.2776  -5.1963  -5.1500  -5.0083  -4.9210   3.7976   8.4120  14.6876

     occupation numbers 
     1.0000   1.0000   1.0000   1.0000   1.0000   1.0000   1.0000  -0.0136

          k = 0.5833-0.2500 0.5833 (  1948 PWs)   bands (ev):

    -5.2621  -5.1991  -5.1567  -4.9869  -4.9454   3.9908   8.1430  14.2048

     occupation numbers 
     1.0000   1.0000   1.0000   1.0000   1.0000   1.0000   1.0000  -0.0319

          k = 0.5000-0.1667 0.5000 (  1943 PWs)   bands (ev):

    -5.2402  -5.2066  -5.1534  -4.9989  -4.9787   3.1678   9.4329  14.0080

     occupation numbers 
     1.0000   1.0000   1.0000   1.0000   1.0000   1.0000   1.0080  -0.0301

          k = 0.4167-0.0833 0.4167 (  1939 PWs)   bands (ev):

    -5.2250  -5.2105  -5.1411  -5.0667  -4.9864   2.1554  11.3960  14.1613

     occupation numbers 
     1.0000   1.0000   1.0000   1.0000   1.0000   1.0000   0.8921  -0.0064

          k = 0.3333 0.0000 0.3333 (  1935 PWs)   bands (ev):

    -5.2369  -5.1941  -5.1434  -5.1101  -5.0084   1.3045  13.3365  14.9721

     occupation numbers 
     1.0000   1.0000   1.0000   1.0000   1.0000   1.0000  -0.0155   0.0000

          k = 0.0000 0.5000 0.0000 (  1964 PWs)   bands (ev):

    -5.3309  -5.1900  -5.0678  -5.0678  -5.0080   1.4914  14.3552  15.9995

     occupation numbers 
     1.0000   1.0000   1.0000   1.0000   1.0000   1.0000  -0.0638   0.0000

          k =-0.0833 0.5833-0.0833 (  1945 PWs)   bands (ev):

    -5.3428  -5.2175  -5.0496  -5.0298  -4.9696   2.1737  12.7144  15.1350

     occupation numbers 
     1.0000   1.0000   1.0000   1.0000   1.0000   1.0000   0.1522   0.0000

          k =-0.1667 0.6667-0.1667 (  1936 PWs)   bands (ev):

    -5.3331  -5.2238  -5.0598  -5.0143  -4.9279   3.0749  10.8715  13.9707

     occupation numbers 
     1.0000   1.0000   1.0000   1.0000   1.0000   1.0000   0.9967  -0.0074

          k = 0.7500-0.2500 0.7500 (  1941 PWs)   bands (ev):

    -5.3154  -5.1980  -5.0744  -5.0224  -4.9161   4.0303   9.3281  12.9516

     occupation numbers 
     1.0000   1.0000   1.0000   1.0000   1.0000   1.0000   1.0003  -0.0406

          k = 0.6667-0.1667 0.6667 (  1944 PWs)   bands (ev):

    -5.2947  -5.1547  -5.0865  -5.0427  -4.9405   4.5027   8.7121  12.2216

     occupation numbers 
     1.0000   1.0000   1.0000   1.0000   1.0000   1.0000   1.0000   0.2611

          k = 0.5833-0.0833 0.5833 (  1941 PWs)   bands (ev):

    -5.2680  -5.1459  -5.0928  -5.0374  -4.9938   3.9721   9.5255  11.8755

     occupation numbers 
     1.0000   1.0000   1.0000   1.0000   1.0000   1.0000   1.0000   0.4042

          k = 0.5000 0.0000 0.5000 (  1947 PWs)   bands (ev):

    -5.2383  -5.1831  -5.0989  -5.0541  -5.0039   3.0319  10.7927  12.3153

     occupation numbers 
     1.0000   1.0000   1.0000   1.0000   1.0000   1.0000   1.0048   0.0515

          k = 0.0000 0.6667 0.0000 (  1948 PWs)   bands (ev):

    -5.3777  -5.2560  -4.9788  -4.9788  -4.9729   2.7582  11.9455  14.9121

     occupation numbers 
     1.0000   1.0000   1.0000   1.0000   1.0000   1.0000   0.6430   0.0000

          k =-0.0833 0.7500-0.0833 (  1943 PWs)   bands (ev):

    -5.3827  -5.2754  -4.9854  -4.9535  -4.9253   3.5610  10.6935  13.8332

     occupation numbers 
     1.0000   1.0000   1.0000   1.0000   1.0000   1.0000   1.0142  -0.0050

          k = 0.8333-0.1667 0.8333 (  1941 PWs)   bands (ev):

    -5.3621  -5.2621  -4.9995  -4.9633  -4.9088   4.4375   9.6600  12.2996

     occupation numbers 
     1.0000   1.0000   1.0000   1.0000   1.0000   1.0000   1.0020   0.0868

          k = 0.7500-0.0833 0.7500 (  1927 PWs)   bands (ev):

    -5.3336  -5.2058  -5.0164  -5.0057  -4.9286   4.9745   9.3305  10.9786

     occupation numbers 
     1.0000   1.0000   1.0000   1.0000   1.0000   1.0000   1.0000   0.9986

          k = 0.6667 0.0000 0.6667 (  1935 PWs)   bands (ev):

    -5.3019  -5.1237  -5.0696  -5.0423  -4.9685   4.7153   9.9746  10.2370

     occupation numbers 
     1.0000   1.0000   1.0000   1.0000   1.0000   1.0000   1.0000   1.0938

          k = 0.0000 0.8333 0.0000 (  1956 PWs)   bands (ev):

    -5.4118  -5.3074  -4.9473  -4.9117  -4.9117   4.2421   9.6770  14.2254

     occupation numbers 
     1.0000   1.0000   1.0000   1.0000   1.0000   1.0000   1.0131  -0.0000

          k = 0.9167-0.0833 0.9167 (  1948 PWs)   bands (ev):

    -5.4057  -5.3107  -4.9508  -4.9079  -4.8963   4.9383   8.8923  13.2307

     occupation numbers 
     1.0000   1.0000   1.0000   1.0000   1.0000   1.0000   1.0000  -0.0367

          k = 0.8333 0.0000 0.8333 (  1938 PWs)   bands (ev):

    -5.3729  -5.2769  -4.9707  -4.9434  -4.9082   5.2332   8.8953  11.7450

     occupation numbers 
     1.0000   1.0000   1.0000   1.0000   1.0000   1.0000   1.0000   0.6151

          k = 0.0000-1.0000 0.0000 (  1964 PWs)   bands (ev):

    -5.4242  -5.3267  -4.9379  -4.8868  -4.8868   5.2143   8.4278  13.9909

     occupation numbers 
     1.0000   1.0000   1.0000   1.0000   1.0000   1.0000   1.0000  -0.0124

          k =-0.1667 0.3333 0.0000 (  1950 PWs)   bands (ev):

    -5.2660  -5.1745  -5.1564  -5.1150  -5.0328   0.7500  15.0322  16.4529

     occupation numbers 
     1.0000   1.0000   1.0000   1.0000   1.0000   1.0000  -0.0192   0.0000

          k =-0.2500 0.4167-0.0833 (  1941 PWs)   bands (ev):

    -5.2633  -5.1841  -5.1421  -5.0931  -4.9970   1.4423  12.8554  15.5596

     occupation numbers 
     1.0000   1.0000   1.0000   1.0000   1.0000   1.0000   0.0679   0.0000

          k =-0.3333 0.5000-0.1667 (  1938 PWs)   bands (ev):

    -5.2569  -5.2045  -5.1523  -5.0420  -4.9606   2.3722  10.6039  15.1910

     occupation numbers 
     1.0000   1.0000   1.0000   1.0000   1.0000   1.0000   1.0004  -0.0001

          k = 0.5833-0.4167 0.7500 (  1938 PWs)   bands (ev):

    -5.2510  -5.2239  -5.1609  -4.9976  -4.9373   3.4009   8.7443  15.0694

     occupation numbers 
     1.0000   1.0000   1.0000   1.0000   1.0000   1.0000   1.0002  -0.0043

          k = 0.5000-0.3333 0.6667 (  1952 PWs)   bands (ev):

    -5.2461  -5.2348  -5.1639  -4.9786  -4.9311   3.9783   7.8859  15.0610

     occupation numbers 
     1.0000   1.0000   1.0000   1.0000   1.0000   1.0000   1.0000  -0.0073

          k =-0.1667 0.5000 0.0000 (  1945 PWs)   bands (ev):

    -5.3076  -5.1854  -5.1019  -5.0703  -4.9881   1.6727  13.3371  15.1172

     occupation numbers 
     1.0000   1.0000   1.0000   1.0000   1.0000   1.0000  -0.0281   0.0000

          k =-0.2500 0.5833-0.0833 (  1939 PWs)   bands (ev):

    -5.2983  -5.2021  -5.1048  -5.0352  -4.9556   2.5152  11.5053  14.2346

     occupation numbers 
     1.0000   1.0000   1.0000   1.0000   1.0000   1.0000   0.8750  -0.0029

          k = 0.6667-0.3333 0.8333 (  1940 PWs)   bands (ev):

    -5.2824  -5.2023  -5.1090  -5.0258  -4.9319   3.5030   9.6864  13.7259

     occupation numbers 
     1.0000   1.0000   1.0000   1.0000   1.0000   1.0000   1.0088  -0.0352

          k = 0.5833-0.2500 0.7500 (  1942 PWs)   bands (ev):

    -5.2676  -5.1977  -5.1021  -5.0330  -4.9298   4.2720   8.5296  13.2799

     occupation numbers 
     1.0000   1.0000   1.0000   1.0000   1.0000   1.0000   1.0000  -0.0509

          k = 0.5000-0.1667 0.6667 (  1944 PWs)   bands (ev):

    -5.2491  -5.2032  -5.1029  -5.0302  -4.9519   4.0692   8.8395  12.9705

     occupation numbers 
     1.0000   1.0000   1.0000   1.0000   1.0000   1.0000   1.0000  -0.0106

          k = 0.4167-0.0833 0.5833 (  1941 PWs)   bands (ev):

    -5.2260  -5.2206  -5.1152  -5.0315  -4.9775   3.1533  10.3121  12.9669

     occupation numbers 
     1.0000   1.0000   1.0000   1.0000   1.0000   1.0000   1.0130  -0.0129

          k = 0.3333 0.0000 0.5000 (  1937 PWs)   bands (ev):

    -5.2465  -5.2017  -5.1187  -5.0734  -4.9821   2.2028  11.9235  13.6488

     occupation numbers 
     1.0000   1.0000   1.0000   1.0000   1.0000   1.0000   0.7187  -0.0067

          k =-0.1667 0.6667-0.0000 (  1944 PWs)   bands (ev):

    -5.3497  -5.2417  -5.0408  -4.9803  -4.9486   2.9199  11.5874  14.0823

     occupation numbers 
     1.0000   1.0000   1.0000   1.0000   1.0000   1.0000   0.8809  -0.0000

          k = 0.7500-0.2500 0.9167 (  1945 PWs)   bands (ev):

    -5.3308  -5.2419  -5.0516  -4.9718  -4.9263   3.8279  10.3121  12.9034

     occupation numbers 
     1.0000   1.0000   1.0000   1.0000   1.0000   1.0000   1.0100  -0.0330

          k = 0.6667-0.1667 0.8333 (  1929 PWs)   bands (ev):

    -5.3061  -5.2043  -5.0661  -5.0068  -4.9191   4.6307   9.3409  11.8408

     occupation numbers 
     1.0000   1.0000   1.0000   1.0000   1.0000   1.0000   1.0000   0.5411

          k = 0.5833-0.0833 0.7500 (  1934 PWs)   bands (ev):

    -5.2818  -5.1491  -5.0870  -5.0459  -4.9422   4.7273   9.3692  11.1451

     occupation numbers 
     1.0000   1.0000   1.0000   1.0000   1.0000   1.0000   1.0000   0.9448

          k = 0.5000 0.0000 0.6667 (  1940 PWs)   bands (ev):

    -5.2538  -5.1649  -5.1004  -5.0269  -4.9849   4.0397  10.1154  11.2859

     occupation numbers 
     1.0000   1.0000   1.0000   1.0000   1.0000   1.0000   1.0000   0.7930

          k = 0.8333-0.1667 1.0000 (  1947 PWs)   bands (ev):

    -5.3806  -5.2885  -4.9833  -4.9278  -4.9121   4.3502   9.7356  13.4292

     occupation numbers 
     1.0000   1.0000   1.0000   1.0000   1.0000   1.0000   1.0053  -0.0749

          k = 0.7500-0.0833 0.9167 (  1936 PWs)   bands (ev):

    -5.3502  -5.2691  -4.9975  -4.9628  -4.8991   5.0316   9.2251  11.9477

     occupation numbers 
     1.0000   1.0000   1.0000   1.0000   1.0000   1.0000   1.0000   0.4794

          k = 0.6667 0.0000 0.8333 (  1929 PWs)   bands (ev):

    -5.3156  -5.2071  -5.0371  -5.0095  -4.9151   5.1623   9.5729  10.6250

     occupation numbers 
     1.0000   1.0000   1.0000   1.0000   1.0000   1.0000   1.0000   1.0737

          k =-0.1667-1.0000 0.0000 (  1940 PWs)   bands (ev):

    -5.3918  -5.3063  -4.9549  -4.9268  -4.8867   5.2419   8.6626  13.2060

     occupation numbers 
     1.0000   1.0000   1.0000   1.0000   1.0000   1.0000   1.0000  -0.0802

          k = 0.6667-0.3333 1.0000 (  1930 PWs)   bands (ev):

    -5.2721  -5.2187  -5.1073  -4.9835  -4.9684   3.3780  10.7901  12.6319

     occupation numbers 
     1.0000   1.0000   1.0000   1.0000   1.0000   1.0000   1.0053  -0.0011

          k = 0.5833-0.2500 0.9167 (  1933 PWs)   bands (ev):

    -5.2447  -5.2149  -5.1072  -5.0113  -4.9396   4.2781   9.7142  11.9877

     occupation numbers 
     1.0000   1.0000   1.0000   1.0000   1.0000   1.0000   1.0000   0.3915

          k = 0.5000-0.1667 0.8333 (  1930 PWs)   bands (ev):

    -5.2435  -5.1981  -5.0933  -5.0467  -4.9243   4.7394   9.1106  11.8813

     occupation numbers 
     1.0000   1.0000   1.0000   1.0000   1.0000   1.0000   1.0000   0.6336

          k = 0.6667-0.1667 1.0000 (  1946 PWs)   bands (ev):

    -5.2932  -5.2459  -5.0669  -4.9772  -4.9132   4.6296   9.8558  11.9927

     occupation numbers 
     1.0000   1.0000   1.0000   1.0000   1.0000   1.0000   1.0000   0.4425

          k = 0.5833-0.0833 0.9167 (  1929 PWs)   bands (ev):

    -5.2594  -5.2074  -5.1022  -5.0175  -4.8997   5.1310   9.7603  11.0061

     occupation numbers 
     1.0000   1.0000   1.0000   1.0000   1.0000   1.0000   1.0000   1.0250

          k = 0.5000 0.0000 0.8333 (  1932 PWs)   bands (ev):

    -5.2434  -5.1683  -5.1407  -5.0274  -4.9145   4.9505  10.0551  10.6376

     occupation numbers 
     1.0000   1.0000   1.0000   1.0000   1.0000   1.0000   1.0000   1.0543

          k =-0.3333-1.0000 0.0000 (  1940 PWs)   bands (ev):

    -5.3010  -5.2580  -5.0332  -4.9971  -4.8867   5.2998   9.3454  11.7745

     occupation numbers 
     1.0000   1.0000   1.0000   1.0000   1.0000   1.0000   1.0000   0.8852

          k =-0.5000-1.0000 0.0000 (  1912 PWs)   bands (ev):

    -5.2263  -5.1708  -5.1708  -5.0255  -4.8865   5.3303  10.4162  10.4162

     occupation numbers 
     1.0000   1.0000   1.0000   1.0000   1.0000   1.0000   1.0000   1.0038

     the Fermi energy is    11.9591 ev
     (compare with:    11.9859 eV, computed in scf)

     Writing output data file /home/elena/AEP_DFT/DFT/tmp/bands/Pb.save/

     init_run     :      0.60s CPU      0.64s WALL (       1 calls)
     electrons    :     14.79s CPU     14.95s WALL (       1 calls)

     Called by init_run:
     wfcinit      :      0.00s CPU      0.00s WALL (       1 calls)
     wfcinit:atom :      0.02s CPU      0.03s WALL (      72 calls)
     wfcinit:wfcr :      0.73s CPU      0.74s WALL (      72 calls)
     potinit      :      0.05s CPU      0.07s WALL (       1 calls)
     hinit0       :      0.43s CPU      0.43s WALL (       1 calls)

     Called by electrons:
     c_bands      :     14.71s CPU     14.87s WALL (       1 calls)
     v_of_rho     :      0.05s CPU      0.06s WALL (       1 calls)
     v_h          :      0.00s CPU      0.00s WALL (       1 calls)
     v_xc         :      0.05s CPU      0.05s WALL (       1 calls)
     newd         :      0.08s CPU      0.11s WALL (       1 calls)

     Called by c_bands:
     init_us_2    :      0.03s CPU      0.04s WALL (      72 calls)
     cegterg      :     13.80s CPU     13.92s WALL (     140 calls)

     Called by sum_band:

     Called by *egterg:
     cdiaghg      :      0.15s CPU      0.16s WALL (    2041 calls)
     cegterg:over :      0.73s CPU      0.73s WALL (    1969 calls)
     cegterg:upda :      0.41s CPU      0.41s WALL (    1969 calls)
     cegterg:last :      1.04s CPU      1.05s WALL (    1244 calls)
     h_psi        :     11.47s CPU     11.58s WALL (    2181 calls)
     s_psi        :      0.45s CPU      0.45s WALL (    2181 calls)
     g_psi        :      0.07s CPU      0.07s WALL (    1969 calls)

     Called by h_psi:
     h_psi:calbec :      0.57s CPU      0.57s WALL (    2181 calls)
     vloc_psi     :     10.40s CPU     10.50s WALL (    2181 calls)
     add_vuspsi   :      0.46s CPU      0.47s WALL (    2181 calls)

     General routines
     calbec       :      0.56s CPU      0.57s WALL (    2181 calls)
     fft          :      0.02s CPU      0.02s WALL (      13 calls)
     ffts         :      0.00s CPU      0.00s WALL (       1 calls)
     fftw         :      9.37s CPU      9.46s WALL (   22290 calls)
     interpolate  :      0.01s CPU      0.01s WALL (       1 calls)
     davcio       :      0.01s CPU      0.01s WALL (     144 calls)


     PWSCF        :     15.70s CPU     15.92s WALL


   This run was terminated on:  22:36: 6   1Jul2021            

=------------------------------------------------------------------------------=
   JOB DONE.
=------------------------------------------------------------------------------=
