
     Program PWSCF v.6.7MaX starts on  1Jul2021 at 22:37:41 

     This program is part of the open-source Quantum ESPRESSO suite
     for quantum simulation of materials; please cite
         "P. Giannozzi et al., J. Phys.:Condens. Matter 21 395502 (2009);
         "P. Giannozzi et al., J. Phys.:Condens. Matter 29 465901 (2017);
          URL http://www.quantum-espresso.org", 
     in publications or presentations arising from this work. More details at
     http://www.quantum-espresso.org/quote

     Serial version
     Waiting for input...
     Reading input from standard input

     Current dimensions of program PWSCF are:
     Max number of different atomic species (ntypx) = 10
     Max number of k-points (npk) =  40000
     Max angular momentum in pseudopotentials (lmaxx) =  3

     Atomic positions and unit cell read from directory:
     /home/elena/AEP_DFT/DFT/tmp/bands/Pb.save/

     file Pb.pbe-dn-rrkjus_psl.1.0.0.UPF: wavefunction(s)  6S 5D renormalized

     G-vector sticks info
     --------------------
     sticks:   dense  smooth     PW     G-vecs:    dense   smooth      PW
     Sum        1639     823    253                43895    15593    2685



     bravais-lattice index     =            2
     lattice parameter (alat)  =       9.2226  a.u.
     unit-cell volume          =     196.1075 (a.u.)^3
     number of atoms/cell      =            1
     number of atomic types    =            1
     number of electrons       =        14.00
     number of Kohn-Sham states=            8
     kinetic-energy cutoff     =      70.0000  Ry
     charge density cutoff     =     560.0000  Ry
     Exchange-correlation= PBE
                           (   1   4   3   4   0   0   0)

     celldm(1)=   9.222558  celldm(2)=   0.000000  celldm(3)=   0.000000
     celldm(4)=   0.000000  celldm(5)=   0.000000  celldm(6)=   0.000000

     crystal axes: (cart. coord. in units of alat)
               a(1) = (  -0.500000   0.000000   0.500000 )  
               a(2) = (   0.000000   0.500000   0.500000 )  
               a(3) = (  -0.500000   0.500000   0.000000 )  

     reciprocal axes: (cart. coord. in units 2 pi/alat)
               b(1) = ( -1.000000 -1.000000  1.000000 )  
               b(2) = (  1.000000  1.000000  1.000000 )  
               b(3) = ( -1.000000  1.000000 -1.000000 )  


     PseudoPot. # 1 for Pb read from file:
     /home/elena/qe-6.7/pseudo/Pb.pbe-dn-rrkjus_psl.1.0.0.UPF
     MD5 check sum: 1cf8f5e18580e6a90a35f98a53d336de
     Pseudo is Ultrasoft + core correction, Zval = 14.0
     Generated using &quot;atomic&quot; code by A. Dal Corso  v.6.3
     Using radial grid of 1281 points,  6 beta functions with: 
                l(1) =   0
                l(2) =   0
                l(3) =   1
                l(4) =   1
                l(5) =   2
                l(6) =   2
     Q(r) pseudized with 0 coefficients 


     atomic species   valence    mass     pseudopotential
        Pb            14.00   207.20000     Pb( 1.00)

     48 Sym. Ops., with inversion, found


                                    s                        frac. trans.

      isym =  1     identity                                     

 cryst.   s( 1) = (     1          0          0      )
                  (     0          1          0      )
                  (     0          0          1      )

 cart.    s( 1) = (  1.0000000  0.0000000  0.0000000 )
                  (  0.0000000  1.0000000  0.0000000 )
                  (  0.0000000  0.0000000  1.0000000 )


      isym =  2     180 deg rotation - cart. axis [0,0,1]        

 cryst.   s( 2) = (     0          1         -1      )
                  (     1          0         -1      )
                  (     0          0         -1      )

 cart.    s( 2) = ( -1.0000000  0.0000000  0.0000000 )
                  (  0.0000000 -1.0000000  0.0000000 )
                  (  0.0000000  0.0000000  1.0000000 )


      isym =  3     180 deg rotation - cart. axis [0,1,0]        

 cryst.   s( 3) = (    -1          0          0      )
                  (    -1          0          1      )
                  (    -1          1          0      )

 cart.    s( 3) = ( -1.0000000  0.0000000  0.0000000 )
                  (  0.0000000  1.0000000  0.0000000 )
                  (  0.0000000  0.0000000 -1.0000000 )


      isym =  4     180 deg rotation - cart. axis [1,0,0]        

 cryst.   s( 4) = (     0         -1          1      )
                  (     0         -1          0      )
                  (     1         -1          0      )

 cart.    s( 4) = (  1.0000000  0.0000000  0.0000000 )
                  (  0.0000000 -1.0000000  0.0000000 )
                  (  0.0000000  0.0000000 -1.0000000 )


      isym =  5     180 deg rotation - cart. axis [1,1,0]        

 cryst.   s( 5) = (     0         -1          0      )
                  (    -1          0          0      )
                  (     0          0         -1      )

 cart.    s( 5) = (  0.0000000  1.0000000  0.0000000 )
                  (  1.0000000  0.0000000  0.0000000 )
                  (  0.0000000  0.0000000 -1.0000000 )


      isym =  6     180 deg rotation - cart. axis [1,-1,0]       

 cryst.   s( 6) = (    -1          0          1      )
                  (     0         -1          1      )
                  (     0          0          1      )

 cart.    s( 6) = (  0.0000000 -1.0000000  0.0000000 )
                  ( -1.0000000  0.0000000  0.0000000 )
                  (  0.0000000  0.0000000 -1.0000000 )


      isym =  7      90 deg rotation - cart. axis [0,0,-1]       

 cryst.   s( 7) = (     0          1          0      )
                  (     0          1         -1      )
                  (    -1          1          0      )

 cart.    s( 7) = (  0.0000000  1.0000000  0.0000000 )
                  ( -1.0000000  0.0000000  0.0000000 )
                  (  0.0000000  0.0000000  1.0000000 )


      isym =  8      90 deg rotation - cart. axis [0,0,1]        

 cryst.   s( 8) = (     1          0         -1      )
                  (     1          0          0      )
                  (     1         -1          0      )

 cart.    s( 8) = (  0.0000000 -1.0000000  0.0000000 )
                  (  1.0000000  0.0000000  0.0000000 )
                  (  0.0000000  0.0000000  1.0000000 )


      isym =  9     180 deg rotation - cart. axis [1,0,1]        

 cryst.   s( 9) = (    -1          0          0      )
                  (     0          0         -1      )
                  (     0         -1          0      )

 cart.    s( 9) = (  0.0000000  0.0000000  1.0000000 )
                  (  0.0000000 -1.0000000  0.0000000 )
                  (  1.0000000  0.0000000  0.0000000 )


      isym = 10     180 deg rotation - cart. axis [-1,0,1]       

 cryst.   s(10) = (     1          0          0      )
                  (     1         -1          0      )
                  (     1          0         -1      )

 cart.    s(10) = (  0.0000000  0.0000000 -1.0000000 )
                  (  0.0000000 -1.0000000  0.0000000 )
                  ( -1.0000000  0.0000000  0.0000000 )


      isym = 11      90 deg rotation - cart. axis [0,1,0]        

 cryst.   s(11) = (     0          1         -1      )
                  (    -1          1          0      )
                  (     0          1          0      )

 cart.    s(11) = (  0.0000000  0.0000000  1.0000000 )
                  (  0.0000000  1.0000000  0.0000000 )
                  ( -1.0000000  0.0000000  0.0000000 )


      isym = 12      90 deg rotation - cart. axis [0,-1,0]       

 cryst.   s(12) = (     0         -1          1      )
                  (     0          0          1      )
                  (    -1          0          1      )

 cart.    s(12) = (  0.0000000  0.0000000 -1.0000000 )
                  (  0.0000000  1.0000000  0.0000000 )
                  (  1.0000000  0.0000000  0.0000000 )


      isym = 13     180 deg rotation - cart. axis [0,1,1]        

 cryst.   s(13) = (    -1          1          0      )
                  (     0          1          0      )
                  (     0          1         -1      )

 cart.    s(13) = ( -1.0000000  0.0000000  0.0000000 )
                  (  0.0000000  0.0000000  1.0000000 )
                  (  0.0000000  1.0000000  0.0000000 )


      isym = 14     180 deg rotation - cart. axis [0,1,-1]       

 cryst.   s(14) = (     0          0         -1      )
                  (     0         -1          0      )
                  (    -1          0          0      )

 cart.    s(14) = ( -1.0000000  0.0000000  0.0000000 )
                  (  0.0000000  0.0000000 -1.0000000 )
                  (  0.0000000 -1.0000000  0.0000000 )


      isym = 15      90 deg rotation - cart. axis [-1,0,0]       

 cryst.   s(15) = (     0          0          1      )
                  (    -1          0          1      )
                  (     0         -1          1      )

 cart.    s(15) = (  1.0000000  0.0000000  0.0000000 )
                  (  0.0000000  0.0000000  1.0000000 )
                  (  0.0000000 -1.0000000  0.0000000 )


      isym = 16      90 deg rotation - cart. axis [1,0,0]        

 cryst.   s(16) = (     1         -1          0      )
                  (     1          0         -1      )
                  (     1          0          0      )

 cart.    s(16) = (  1.0000000  0.0000000  0.0000000 )
                  (  0.0000000  0.0000000 -1.0000000 )
                  (  0.0000000  1.0000000  0.0000000 )


      isym = 17     120 deg rotation - cart. axis [-1,-1,-1]     

 cryst.   s(17) = (    -1          0          1      )
                  (    -1          1          0      )
                  (    -1          0          0      )

 cart.    s(17) = (  0.0000000  1.0000000  0.0000000 )
                  (  0.0000000  0.0000000  1.0000000 )
                  (  1.0000000  0.0000000  0.0000000 )


      isym = 18     120 deg rotation - cart. axis [-1,1,1]       

 cryst.   s(18) = (     0          1          0      )
                  (     0          0          1      )
                  (     1          0          0      )

 cart.    s(18) = (  0.0000000 -1.0000000  0.0000000 )
                  (  0.0000000  0.0000000  1.0000000 )
                  ( -1.0000000  0.0000000  0.0000000 )


      isym = 19     120 deg rotation - cart. axis [1,1,-1]       

 cryst.   s(19) = (     1          0         -1      )
                  (     0          0         -1      )
                  (     0          1         -1      )

 cart.    s(19) = (  0.0000000  1.0000000  0.0000000 )
                  (  0.0000000  0.0000000 -1.0000000 )
                  ( -1.0000000  0.0000000  0.0000000 )


      isym = 20     120 deg rotation - cart. axis [1,-1,1]       

 cryst.   s(20) = (     0         -1          0      )
                  (     1         -1          0      )
                  (     0         -1          1      )

 cart.    s(20) = (  0.0000000 -1.0000000  0.0000000 )
                  (  0.0000000  0.0000000 -1.0000000 )
                  (  1.0000000  0.0000000  0.0000000 )


      isym = 21     120 deg rotation - cart. axis [1,1,1]        

 cryst.   s(21) = (     0          0         -1      )
                  (     0          1         -1      )
                  (     1          0         -1      )

 cart.    s(21) = (  0.0000000  0.0000000  1.0000000 )
                  (  1.0000000  0.0000000  0.0000000 )
                  (  0.0000000  1.0000000  0.0000000 )


      isym = 22     120 deg rotation - cart. axis [-1,1,-1]      

 cryst.   s(22) = (    -1          1          0      )
                  (    -1          0          0      )
                  (    -1          0          1      )

 cart.    s(22) = (  0.0000000  0.0000000  1.0000000 )
                  ( -1.0000000  0.0000000  0.0000000 )
                  (  0.0000000 -1.0000000  0.0000000 )


      isym = 23     120 deg rotation - cart. axis [1,-1,-1]      

 cryst.   s(23) = (     0          0          1      )
                  (     1          0          0      )
                  (     0          1          0      )

 cart.    s(23) = (  0.0000000  0.0000000 -1.0000000 )
                  ( -1.0000000  0.0000000  0.0000000 )
                  (  0.0000000  1.0000000  0.0000000 )


      isym = 24     120 deg rotation - cart. axis [-1,-1,1]      

 cryst.   s(24) = (     1         -1          0      )
                  (     0         -1          1      )
                  (     0         -1          0      )

 cart.    s(24) = (  0.0000000  0.0000000 -1.0000000 )
                  (  1.0000000  0.0000000  0.0000000 )
                  (  0.0000000 -1.0000000  0.0000000 )


      isym = 25     inversion                                    

 cryst.   s(25) = (    -1          0          0      )
                  (     0         -1          0      )
                  (     0          0         -1      )

 cart.    s(25) = ( -1.0000000  0.0000000  0.0000000 )
                  (  0.0000000 -1.0000000  0.0000000 )
                  (  0.0000000  0.0000000 -1.0000000 )


      isym = 26     inv. 180 deg rotation - cart. axis [0,0,1]   

 cryst.   s(26) = (     0         -1          1      )
                  (    -1          0          1      )
                  (     0          0          1      )

 cart.    s(26) = (  1.0000000  0.0000000  0.0000000 )
                  (  0.0000000  1.0000000  0.0000000 )
                  (  0.0000000  0.0000000 -1.0000000 )


      isym = 27     inv. 180 deg rotation - cart. axis [0,1,0]   

 cryst.   s(27) = (     1          0          0      )
                  (     1          0         -1      )
                  (     1         -1          0      )

 cart.    s(27) = (  1.0000000  0.0000000  0.0000000 )
                  (  0.0000000 -1.0000000  0.0000000 )
                  (  0.0000000  0.0000000  1.0000000 )


      isym = 28     inv. 180 deg rotation - cart. axis [1,0,0]   

 cryst.   s(28) = (     0          1         -1      )
                  (     0          1          0      )
                  (    -1          1          0      )

 cart.    s(28) = ( -1.0000000  0.0000000  0.0000000 )
                  (  0.0000000  1.0000000  0.0000000 )
                  (  0.0000000  0.0000000  1.0000000 )


      isym = 29     inv. 180 deg rotation - cart. axis [1,1,0]   

 cryst.   s(29) = (     0          1          0      )
                  (     1          0          0      )
                  (     0          0          1      )

 cart.    s(29) = (  0.0000000 -1.0000000  0.0000000 )
                  ( -1.0000000  0.0000000  0.0000000 )
                  (  0.0000000  0.0000000  1.0000000 )


      isym = 30     inv. 180 deg rotation - cart. axis [1,-1,0]  

 cryst.   s(30) = (     1          0         -1      )
                  (     0          1         -1      )
                  (     0          0         -1      )

 cart.    s(30) = (  0.0000000  1.0000000  0.0000000 )
                  (  1.0000000  0.0000000  0.0000000 )
                  (  0.0000000  0.0000000  1.0000000 )


      isym = 31     inv.  90 deg rotation - cart. axis [0,0,-1]  

 cryst.   s(31) = (     0         -1          0      )
                  (     0         -1          1      )
                  (     1         -1          0      )

 cart.    s(31) = (  0.0000000 -1.0000000  0.0000000 )
                  (  1.0000000  0.0000000  0.0000000 )
                  (  0.0000000  0.0000000 -1.0000000 )


      isym = 32     inv.  90 deg rotation - cart. axis [0,0,1]   

 cryst.   s(32) = (    -1          0          1      )
                  (    -1          0          0      )
                  (    -1          1          0      )

 cart.    s(32) = (  0.0000000  1.0000000  0.0000000 )
                  ( -1.0000000  0.0000000  0.0000000 )
                  (  0.0000000  0.0000000 -1.0000000 )


      isym = 33     inv. 180 deg rotation - cart. axis [1,0,1]   

 cryst.   s(33) = (     1          0          0      )
                  (     0          0          1      )
                  (     0          1          0      )

 cart.    s(33) = (  0.0000000  0.0000000 -1.0000000 )
                  (  0.0000000  1.0000000  0.0000000 )
                  ( -1.0000000  0.0000000  0.0000000 )


      isym = 34     inv. 180 deg rotation - cart. axis [-1,0,1]  

 cryst.   s(34) = (    -1          0          0      )
                  (    -1          1          0      )
                  (    -1          0          1      )

 cart.    s(34) = (  0.0000000  0.0000000  1.0000000 )
                  (  0.0000000  1.0000000  0.0000000 )
                  (  1.0000000  0.0000000  0.0000000 )


      isym = 35     inv.  90 deg rotation - cart. axis [0,1,0]   

 cryst.   s(35) = (     0         -1          1      )
                  (     1         -1          0      )
                  (     0         -1          0      )

 cart.    s(35) = (  0.0000000  0.0000000 -1.0000000 )
                  (  0.0000000 -1.0000000  0.0000000 )
                  (  1.0000000  0.0000000  0.0000000 )


      isym = 36     inv.  90 deg rotation - cart. axis [0,-1,0]  

 cryst.   s(36) = (     0          1         -1      )
                  (     0          0         -1      )
                  (     1          0         -1      )

 cart.    s(36) = (  0.0000000  0.0000000  1.0000000 )
                  (  0.0000000 -1.0000000  0.0000000 )
                  ( -1.0000000  0.0000000  0.0000000 )


      isym = 37     inv. 180 deg rotation - cart. axis [0,1,1]   

 cryst.   s(37) = (     1         -1          0      )
                  (     0         -1          0      )
                  (     0         -1          1      )

 cart.    s(37) = (  1.0000000  0.0000000  0.0000000 )
                  (  0.0000000  0.0000000 -1.0000000 )
                  (  0.0000000 -1.0000000  0.0000000 )


      isym = 38     inv. 180 deg rotation - cart. axis [0,1,-1]  

 cryst.   s(38) = (     0          0          1      )
                  (     0          1          0      )
                  (     1          0          0      )

 cart.    s(38) = (  1.0000000  0.0000000  0.0000000 )
                  (  0.0000000  0.0000000  1.0000000 )
                  (  0.0000000  1.0000000  0.0000000 )


      isym = 39     inv.  90 deg rotation - cart. axis [-1,0,0]  

 cryst.   s(39) = (     0          0         -1      )
                  (     1          0         -1      )
                  (     0          1         -1      )

 cart.    s(39) = ( -1.0000000  0.0000000  0.0000000 )
                  (  0.0000000  0.0000000 -1.0000000 )
                  (  0.0000000  1.0000000  0.0000000 )


      isym = 40     inv.  90 deg rotation - cart. axis [1,0,0]   

 cryst.   s(40) = (    -1          1          0      )
                  (    -1          0          1      )
                  (    -1          0          0      )

 cart.    s(40) = ( -1.0000000  0.0000000  0.0000000 )
                  (  0.0000000  0.0000000  1.0000000 )
                  (  0.0000000 -1.0000000  0.0000000 )


      isym = 41     inv. 120 deg rotation - cart. axis [-1,-1,-1]

 cryst.   s(41) = (     1          0         -1      )
                  (     1         -1          0      )
                  (     1          0          0      )

 cart.    s(41) = (  0.0000000 -1.0000000  0.0000000 )
                  (  0.0000000  0.0000000 -1.0000000 )
                  ( -1.0000000  0.0000000  0.0000000 )


      isym = 42     inv. 120 deg rotation - cart. axis [-1,1,1]  

 cryst.   s(42) = (     0         -1          0      )
                  (     0          0         -1      )
                  (    -1          0          0      )

 cart.    s(42) = (  0.0000000  1.0000000  0.0000000 )
                  (  0.0000000  0.0000000 -1.0000000 )
                  (  1.0000000  0.0000000  0.0000000 )


      isym = 43     inv. 120 deg rotation - cart. axis [1,1,-1]  

 cryst.   s(43) = (    -1          0          1      )
                  (     0          0          1      )
                  (     0         -1          1      )

 cart.    s(43) = (  0.0000000 -1.0000000  0.0000000 )
                  (  0.0000000  0.0000000  1.0000000 )
                  (  1.0000000  0.0000000  0.0000000 )


      isym = 44     inv. 120 deg rotation - cart. axis [1,-1,1]  

 cryst.   s(44) = (     0          1          0      )
                  (    -1          1          0      )
                  (     0          1         -1      )

 cart.    s(44) = (  0.0000000  1.0000000  0.0000000 )
                  (  0.0000000  0.0000000  1.0000000 )
                  ( -1.0000000  0.0000000  0.0000000 )


      isym = 45     inv. 120 deg rotation - cart. axis [1,1,1]   

 cryst.   s(45) = (     0          0          1      )
                  (     0         -1          1      )
                  (    -1          0          1      )

 cart.    s(45) = (  0.0000000  0.0000000 -1.0000000 )
                  ( -1.0000000  0.0000000  0.0000000 )
                  (  0.0000000 -1.0000000  0.0000000 )


      isym = 46     inv. 120 deg rotation - cart. axis [-1,1,-1] 

 cryst.   s(46) = (     1         -1          0      )
                  (     1          0          0      )
                  (     1          0         -1      )

 cart.    s(46) = (  0.0000000  0.0000000 -1.0000000 )
                  (  1.0000000  0.0000000  0.0000000 )
                  (  0.0000000  1.0000000  0.0000000 )


      isym = 47     inv. 120 deg rotation - cart. axis [1,-1,-1] 

 cryst.   s(47) = (     0          0         -1      )
                  (    -1          0          0      )
                  (     0         -1          0      )

 cart.    s(47) = (  0.0000000  0.0000000  1.0000000 )
                  (  1.0000000  0.0000000  0.0000000 )
                  (  0.0000000 -1.0000000  0.0000000 )


      isym = 48     inv. 120 deg rotation - cart. axis [-1,-1,1] 

 cryst.   s(48) = (    -1          1          0      )
                  (     0          1         -1      )
                  (     0          1          0      )

 cart.    s(48) = (  0.0000000  0.0000000  1.0000000 )
                  ( -1.0000000  0.0000000  0.0000000 )
                  (  0.0000000  1.0000000  0.0000000 )


     point group O_h (m-3m) 
     there are 10 classes
     the character table:

       E     8C3   3C2   6C4   6C2'  i     8S6   3s_h  6S4   6s_d 
A_1g   1.00  1.00  1.00  1.00  1.00  1.00  1.00  1.00  1.00  1.00
A_2g   1.00  1.00  1.00 -1.00 -1.00  1.00  1.00  1.00 -1.00 -1.00
E_g    2.00 -1.00  2.00  0.00  0.00  2.00 -1.00  2.00  0.00  0.00
T_1g   3.00  0.00 -1.00  1.00 -1.00  3.00  0.00 -1.00  1.00 -1.00
T_2g   3.00  0.00 -1.00 -1.00  1.00  3.00  0.00 -1.00 -1.00  1.00
A_1u   1.00  1.00  1.00  1.00  1.00 -1.00 -1.00 -1.00 -1.00 -1.00
A_2u   1.00  1.00  1.00 -1.00 -1.00 -1.00 -1.00 -1.00  1.00  1.00
E_u    2.00 -1.00  2.00  0.00  0.00 -2.00  1.00 -2.00  0.00  0.00
T_1u   3.00  0.00 -1.00  1.00 -1.00 -3.00  0.00  1.00 -1.00  1.00
T_2u   3.00  0.00 -1.00 -1.00  1.00 -3.00  0.00  1.00  1.00 -1.00

     the symmetry operations in each class and the name of the first element:

     E        1
          identity                                               
     8C3     17   19   20   18   24   21   22   23
          120 deg rotation - cart. axis [-1,-1,-1]               
     3C2      2    4    3
          180 deg rotation - cart. axis [0,0,1]                  
     6C4      7    8   15   16   12   11
           90 deg rotation - cart. axis [0,0,-1]                 
     6C2'     5    6   14   13   10    9
          180 deg rotation - cart. axis [1,1,0]                  
     i       25
          inversion                                              
     8S6     41   43   44   42   48   45   46   47
          inv. 120 deg rotation - cart. axis [-1,-1,-1]          
     3s_h    26   28   27
          inv. 180 deg rotation - cart. axis [0,0,1]             
     6S4     31   32   39   40   36   35
          inv.  90 deg rotation - cart. axis [0,0,-1]            
     6s_d    29   30   38   37   34   33
          inv. 180 deg rotation - cart. axis [1,1,0]             

   Cartesian axes

     site n.     atom                  positions (alat units)
         1           Pb  tau(   1) = (   0.0000000   0.0000000   0.0000000  )

   Crystallographic axes

     site n.     atom                  positions (cryst. coord.)
         1           Pb  tau(   1) = (  0.0000000  0.0000000  0.0000000  )

     number of k points=   195 (tetrahedron method)
                       cart. coord. in units 2pi/alat
        k(    1) = (   0.0000000   0.0000000   0.0000000), wk =   0.0003429
        k(    2) = (  -0.0555556   0.0555556  -0.0555556), wk =   0.0027435
        k(    3) = (  -0.1111111   0.1111111  -0.1111111), wk =   0.0027435
        k(    4) = (  -0.1666667   0.1666667  -0.1666667), wk =   0.0027435
        k(    5) = (  -0.2222222   0.2222222  -0.2222222), wk =   0.0027435
        k(    6) = (  -0.2777778   0.2777778  -0.2777778), wk =   0.0027435
        k(    7) = (  -0.3333333   0.3333333  -0.3333333), wk =   0.0027435
        k(    8) = (  -0.3888889   0.3888889  -0.3888889), wk =   0.0027435
        k(    9) = (  -0.4444444   0.4444444  -0.4444444), wk =   0.0027435
        k(   10) = (   0.5000000  -0.5000000   0.5000000), wk =   0.0013717
        k(   11) = (   0.0000000   0.1111111   0.0000000), wk =   0.0020576
        k(   12) = (  -0.0555556   0.1666667  -0.0555556), wk =   0.0082305
        k(   13) = (  -0.1111111   0.2222222  -0.1111111), wk =   0.0082305
        k(   14) = (  -0.1666667   0.2777778  -0.1666667), wk =   0.0082305
        k(   15) = (  -0.2222222   0.3333333  -0.2222222), wk =   0.0082305
        k(   16) = (  -0.2777778   0.3888889  -0.2777778), wk =   0.0082305
        k(   17) = (  -0.3333333   0.4444444  -0.3333333), wk =   0.0082305
        k(   18) = (  -0.3888889   0.5000000  -0.3888889), wk =   0.0082305
        k(   19) = (   0.5555556  -0.4444444   0.5555556), wk =   0.0082305
        k(   20) = (   0.5000000  -0.3888889   0.5000000), wk =   0.0082305
        k(   21) = (   0.4444444  -0.3333333   0.4444444), wk =   0.0082305
        k(   22) = (   0.3888889  -0.2777778   0.3888889), wk =   0.0082305
        k(   23) = (   0.3333333  -0.2222222   0.3333333), wk =   0.0082305
        k(   24) = (   0.2777778  -0.1666667   0.2777778), wk =   0.0082305
        k(   25) = (   0.2222222  -0.1111111   0.2222222), wk =   0.0082305
        k(   26) = (   0.1666667  -0.0555556   0.1666667), wk =   0.0082305
        k(   27) = (   0.1111111  -0.0000000   0.1111111), wk =   0.0041152
        k(   28) = (   0.0000000   0.2222222   0.0000000), wk =   0.0020576
        k(   29) = (  -0.0555556   0.2777778  -0.0555556), wk =   0.0082305
        k(   30) = (  -0.1111111   0.3333333  -0.1111111), wk =   0.0082305
        k(   31) = (  -0.1666667   0.3888889  -0.1666667), wk =   0.0082305
        k(   32) = (  -0.2222222   0.4444444  -0.2222222), wk =   0.0082305
        k(   33) = (  -0.2777778   0.5000000  -0.2777778), wk =   0.0082305
        k(   34) = (  -0.3333333   0.5555556  -0.3333333), wk =   0.0082305
        k(   35) = (   0.6111111  -0.3888889   0.6111111), wk =   0.0082305
        k(   36) = (   0.5555556  -0.3333333   0.5555556), wk =   0.0082305
        k(   37) = (   0.5000000  -0.2777778   0.5000000), wk =   0.0082305
        k(   38) = (   0.4444444  -0.2222222   0.4444444), wk =   0.0082305
        k(   39) = (   0.3888889  -0.1666667   0.3888889), wk =   0.0082305
        k(   40) = (   0.3333333  -0.1111111   0.3333333), wk =   0.0082305
        k(   41) = (   0.2777778  -0.0555556   0.2777778), wk =   0.0082305
        k(   42) = (   0.2222222  -0.0000000   0.2222222), wk =   0.0041152
        k(   43) = (   0.0000000   0.3333333   0.0000000), wk =   0.0020576
        k(   44) = (  -0.0555556   0.3888889  -0.0555556), wk =   0.0082305
        k(   45) = (  -0.1111111   0.4444444  -0.1111111), wk =   0.0082305
        k(   46) = (  -0.1666667   0.5000000  -0.1666667), wk =   0.0082305
        k(   47) = (  -0.2222222   0.5555556  -0.2222222), wk =   0.0082305
        k(   48) = (  -0.2777778   0.6111111  -0.2777778), wk =   0.0082305
        k(   49) = (   0.6666667  -0.3333333   0.6666667), wk =   0.0082305
        k(   50) = (   0.6111111  -0.2777778   0.6111111), wk =   0.0082305
        k(   51) = (   0.5555556  -0.2222222   0.5555556), wk =   0.0082305
        k(   52) = (   0.5000000  -0.1666667   0.5000000), wk =   0.0082305
        k(   53) = (   0.4444444  -0.1111111   0.4444444), wk =   0.0082305
        k(   54) = (   0.3888889  -0.0555556   0.3888889), wk =   0.0082305
        k(   55) = (   0.3333333   0.0000000   0.3333333), wk =   0.0041152
        k(   56) = (   0.0000000   0.4444444   0.0000000), wk =   0.0020576
        k(   57) = (  -0.0555556   0.5000000  -0.0555556), wk =   0.0082305
        k(   58) = (  -0.1111111   0.5555556  -0.1111111), wk =   0.0082305
        k(   59) = (  -0.1666667   0.6111111  -0.1666667), wk =   0.0082305
        k(   60) = (  -0.2222222   0.6666667  -0.2222222), wk =   0.0082305
        k(   61) = (   0.7222222  -0.2777778   0.7222222), wk =   0.0082305
        k(   62) = (   0.6666667  -0.2222222   0.6666667), wk =   0.0082305
        k(   63) = (   0.6111111  -0.1666667   0.6111111), wk =   0.0082305
        k(   64) = (   0.5555556  -0.1111111   0.5555556), wk =   0.0082305
        k(   65) = (   0.5000000  -0.0555556   0.5000000), wk =   0.0082305
        k(   66) = (   0.4444444   0.0000000   0.4444444), wk =   0.0041152
        k(   67) = (   0.0000000   0.5555556   0.0000000), wk =   0.0020576
        k(   68) = (  -0.0555556   0.6111111  -0.0555556), wk =   0.0082305
        k(   69) = (  -0.1111111   0.6666667  -0.1111111), wk =   0.0082305
        k(   70) = (  -0.1666667   0.7222222  -0.1666667), wk =   0.0082305
        k(   71) = (   0.7777778  -0.2222222   0.7777778), wk =   0.0082305
        k(   72) = (   0.7222222  -0.1666667   0.7222222), wk =   0.0082305
        k(   73) = (   0.6666667  -0.1111111   0.6666667), wk =   0.0082305
        k(   74) = (   0.6111111  -0.0555556   0.6111111), wk =   0.0082305
        k(   75) = (   0.5555556   0.0000000   0.5555556), wk =   0.0041152
        k(   76) = (   0.0000000   0.6666667   0.0000000), wk =   0.0020576
        k(   77) = (  -0.0555556   0.7222222  -0.0555556), wk =   0.0082305
        k(   78) = (  -0.1111111   0.7777778  -0.1111111), wk =   0.0082305
        k(   79) = (   0.8333333  -0.1666667   0.8333333), wk =   0.0082305
        k(   80) = (   0.7777778  -0.1111111   0.7777778), wk =   0.0082305
        k(   81) = (   0.7222222  -0.0555556   0.7222222), wk =   0.0082305
        k(   82) = (   0.6666667   0.0000000   0.6666667), wk =   0.0041152
        k(   83) = (   0.0000000   0.7777778   0.0000000), wk =   0.0020576
        k(   84) = (  -0.0555556   0.8333333  -0.0555556), wk =   0.0082305
        k(   85) = (   0.8888889  -0.1111111   0.8888889), wk =   0.0082305
        k(   86) = (   0.8333333  -0.0555556   0.8333333), wk =   0.0082305
        k(   87) = (   0.7777778   0.0000000   0.7777778), wk =   0.0041152
        k(   88) = (   0.0000000   0.8888889   0.0000000), wk =   0.0020576
        k(   89) = (   0.9444444  -0.0555556   0.9444444), wk =   0.0082305
        k(   90) = (   0.8888889   0.0000000   0.8888889), wk =   0.0041152
        k(   91) = (   0.0000000  -1.0000000   0.0000000), wk =   0.0010288
        k(   92) = (  -0.1111111   0.2222222   0.0000000), wk =   0.0082305
        k(   93) = (  -0.1666667   0.2777778  -0.0555556), wk =   0.0164609
        k(   94) = (  -0.2222222   0.3333333  -0.1111111), wk =   0.0164609
        k(   95) = (  -0.2777778   0.3888889  -0.1666667), wk =   0.0164609
        k(   96) = (  -0.3333333   0.4444444  -0.2222222), wk =   0.0164609
        k(   97) = (  -0.3888889   0.5000000  -0.2777778), wk =   0.0164609
        k(   98) = (   0.5555556  -0.4444444   0.6666667), wk =   0.0164609
        k(   99) = (   0.5000000  -0.3888889   0.6111111), wk =   0.0082305
        k(  100) = (  -0.1111111   0.3333333   0.0000000), wk =   0.0082305
        k(  101) = (  -0.1666667   0.3888889  -0.0555556), wk =   0.0164609
        k(  102) = (  -0.2222222   0.4444444  -0.1111111), wk =   0.0164609
        k(  103) = (  -0.2777778   0.5000000  -0.1666667), wk =   0.0164609
        k(  104) = (  -0.3333333   0.5555556  -0.2222222), wk =   0.0164609
        k(  105) = (   0.6111111  -0.3888889   0.7222222), wk =   0.0164609
        k(  106) = (   0.5555556  -0.3333333   0.6666667), wk =   0.0164609
        k(  107) = (   0.5000000  -0.2777778   0.6111111), wk =   0.0164609
        k(  108) = (   0.4444444  -0.2222222   0.5555556), wk =   0.0164609
        k(  109) = (   0.3888889  -0.1666667   0.5000000), wk =   0.0164609
        k(  110) = (   0.3333333  -0.1111111   0.4444444), wk =   0.0164609
        k(  111) = (   0.2777778  -0.0555556   0.3888889), wk =   0.0164609
        k(  112) = (   0.2222222  -0.0000000   0.3333333), wk =   0.0082305
        k(  113) = (  -0.1111111   0.4444444   0.0000000), wk =   0.0082305
        k(  114) = (  -0.1666667   0.5000000  -0.0555556), wk =   0.0164609
        k(  115) = (  -0.2222222   0.5555556  -0.1111111), wk =   0.0164609
        k(  116) = (  -0.2777778   0.6111111  -0.1666667), wk =   0.0164609
        k(  117) = (   0.6666667  -0.3333333   0.7777778), wk =   0.0164609
        k(  118) = (   0.6111111  -0.2777778   0.7222222), wk =   0.0164609
        k(  119) = (   0.5555556  -0.2222222   0.6666667), wk =   0.0164609
        k(  120) = (   0.5000000  -0.1666667   0.6111111), wk =   0.0164609
        k(  121) = (   0.4444444  -0.1111111   0.5555556), wk =   0.0164609
        k(  122) = (   0.3888889  -0.0555556   0.5000000), wk =   0.0164609
        k(  123) = (   0.3333333   0.0000000   0.4444444), wk =   0.0082305
        k(  124) = (  -0.1111111   0.5555556   0.0000000), wk =   0.0082305
        k(  125) = (  -0.1666667   0.6111111  -0.0555556), wk =   0.0164609
        k(  126) = (  -0.2222222   0.6666667  -0.1111111), wk =   0.0164609
        k(  127) = (   0.7222222  -0.2777778   0.8333333), wk =   0.0164609
        k(  128) = (   0.6666667  -0.2222222   0.7777778), wk =   0.0164609
        k(  129) = (   0.6111111  -0.1666667   0.7222222), wk =   0.0164609
        k(  130) = (   0.5555556  -0.1111111   0.6666667), wk =   0.0164609
        k(  131) = (   0.5000000  -0.0555556   0.6111111), wk =   0.0164609
        k(  132) = (   0.4444444   0.0000000   0.5555556), wk =   0.0082305
        k(  133) = (  -0.1111111   0.6666667  -0.0000000), wk =   0.0082305
        k(  134) = (  -0.1666667   0.7222222  -0.0555556), wk =   0.0164609
        k(  135) = (   0.7777778  -0.2222222   0.8888889), wk =   0.0164609
        k(  136) = (   0.7222222  -0.1666667   0.8333333), wk =   0.0164609
        k(  137) = (   0.6666667  -0.1111111   0.7777778), wk =   0.0164609
        k(  138) = (   0.6111111  -0.0555556   0.7222222), wk =   0.0164609
        k(  139) = (   0.5555556   0.0000000   0.6666667), wk =   0.0082305
        k(  140) = (  -0.1111111   0.7777778   0.0000000), wk =   0.0082305
        k(  141) = (   0.8333333  -0.1666667   0.9444444), wk =   0.0164609
        k(  142) = (   0.7777778  -0.1111111   0.8888889), wk =   0.0164609
        k(  143) = (   0.7222222  -0.0555556   0.8333333), wk =   0.0164609
        k(  144) = (   0.6666667   0.0000000   0.7777778), wk =   0.0082305
        k(  145) = (   0.8888889  -0.1111111   1.0000000), wk =   0.0082305
        k(  146) = (   0.8333333  -0.0555556   0.9444444), wk =   0.0164609
        k(  147) = (   0.7777778   0.0000000   0.8888889), wk =   0.0082305
        k(  148) = (  -0.1111111  -1.0000000   0.0000000), wk =   0.0041152
        k(  149) = (  -0.2222222   0.4444444   0.0000000), wk =   0.0082305
        k(  150) = (  -0.2777778   0.5000000  -0.0555556), wk =   0.0164609
        k(  151) = (  -0.3333333   0.5555556  -0.1111111), wk =   0.0164609
        k(  152) = (   0.6111111  -0.3888889   0.8333333), wk =   0.0164609
        k(  153) = (   0.5555556  -0.3333333   0.7777778), wk =   0.0164609
        k(  154) = (   0.5000000  -0.2777778   0.7222222), wk =   0.0082305
        k(  155) = (  -0.2222222   0.5555556   0.0000000), wk =   0.0082305
        k(  156) = (  -0.2777778   0.6111111  -0.0555556), wk =   0.0164609
        k(  157) = (   0.6666667  -0.3333333   0.8888889), wk =   0.0164609
        k(  158) = (   0.6111111  -0.2777778   0.8333333), wk =   0.0164609
        k(  159) = (   0.5555556  -0.2222222   0.7777778), wk =   0.0164609
        k(  160) = (   0.5000000  -0.1666667   0.7222222), wk =   0.0164609
        k(  161) = (   0.4444444  -0.1111111   0.6666667), wk =   0.0164609
        k(  162) = (   0.3888889  -0.0555556   0.6111111), wk =   0.0164609
        k(  163) = (   0.3333333   0.0000000   0.5555556), wk =   0.0082305
        k(  164) = (  -0.2222222   0.6666667   0.0000000), wk =   0.0082305
        k(  165) = (   0.7222222  -0.2777778   0.9444444), wk =   0.0164609
        k(  166) = (   0.6666667  -0.2222222   0.8888889), wk =   0.0164609
        k(  167) = (   0.6111111  -0.1666667   0.8333333), wk =   0.0164609
        k(  168) = (   0.5555556  -0.1111111   0.7777778), wk =   0.0164609
        k(  169) = (   0.5000000  -0.0555556   0.7222222), wk =   0.0164609
        k(  170) = (   0.4444444   0.0000000   0.6666667), wk =   0.0082305
        k(  171) = (   0.7777778  -0.2222222   1.0000000), wk =   0.0082305
        k(  172) = (   0.7222222  -0.1666667   0.9444444), wk =   0.0164609
        k(  173) = (   0.6666667  -0.1111111   0.8888889), wk =   0.0164609
        k(  174) = (   0.6111111  -0.0555556   0.8333333), wk =   0.0164609
        k(  175) = (   0.5555556   0.0000000   0.7777778), wk =   0.0082305
        k(  176) = (   0.7777778  -0.1111111   1.0000000), wk =   0.0082305
        k(  177) = (   0.7222222  -0.0555556   0.9444444), wk =   0.0164609
        k(  178) = (   0.6666667  -0.0000000   0.8888889), wk =   0.0082305
        k(  179) = (  -0.2222222  -1.0000000   0.0000000), wk =   0.0041152
        k(  180) = (   0.6666667  -0.3333333   1.0000000), wk =   0.0082305
        k(  181) = (   0.6111111  -0.2777778   0.9444444), wk =   0.0164609
        k(  182) = (   0.5555556  -0.2222222   0.8888889), wk =   0.0164609
        k(  183) = (   0.5000000  -0.1666667   0.8333333), wk =   0.0082305
        k(  184) = (   0.6666667  -0.2222222   1.0000000), wk =   0.0082305
        k(  185) = (   0.6111111  -0.1666667   0.9444444), wk =   0.0164609
        k(  186) = (   0.5555556  -0.1111111   0.8888889), wk =   0.0164609
        k(  187) = (   0.5000000  -0.0555556   0.8333333), wk =   0.0164609
        k(  188) = (   0.4444444   0.0000000   0.7777778), wk =   0.0082305
        k(  189) = (   0.6666667  -0.1111111   1.0000000), wk =   0.0082305
        k(  190) = (   0.6111111  -0.0555556   0.9444444), wk =   0.0164609
        k(  191) = (   0.5555556   0.0000000   0.8888889), wk =   0.0082305
        k(  192) = (  -0.3333333  -1.0000000   0.0000000), wk =   0.0041152
        k(  193) = (   0.5555556  -0.1111111   1.0000000), wk =   0.0082305
        k(  194) = (   0.5000000  -0.0555556   0.9444444), wk =   0.0082305
        k(  195) = (  -0.4444444  -1.0000000   0.0000000), wk =   0.0041152

                       cryst. coord.
        k(    1) = (   0.0000000   0.0000000   0.0000000), wk =   0.0003429
        k(    2) = (   0.0000000   0.0000000   0.0555556), wk =   0.0027435
        k(    3) = (   0.0000000   0.0000000   0.1111111), wk =   0.0027435
        k(    4) = (   0.0000000   0.0000000   0.1666667), wk =   0.0027435
        k(    5) = (   0.0000000   0.0000000   0.2222222), wk =   0.0027435
        k(    6) = (   0.0000000   0.0000000   0.2777778), wk =   0.0027435
        k(    7) = (   0.0000000   0.0000000   0.3333333), wk =   0.0027435
        k(    8) = (   0.0000000   0.0000000   0.3888889), wk =   0.0027435
        k(    9) = (   0.0000000   0.0000000   0.4444444), wk =   0.0027435
        k(   10) = (   0.0000000   0.0000000  -0.5000000), wk =   0.0013717
        k(   11) = (   0.0000000   0.0555556   0.0555556), wk =   0.0020576
        k(   12) = (   0.0000000   0.0555556   0.1111111), wk =   0.0082305
        k(   13) = (   0.0000000   0.0555556   0.1666667), wk =   0.0082305
        k(   14) = (   0.0000000   0.0555556   0.2222222), wk =   0.0082305
        k(   15) = (   0.0000000   0.0555556   0.2777778), wk =   0.0082305
        k(   16) = (   0.0000000   0.0555556   0.3333333), wk =   0.0082305
        k(   17) = (   0.0000000   0.0555556   0.3888889), wk =   0.0082305
        k(   18) = (   0.0000000   0.0555556   0.4444444), wk =   0.0082305
        k(   19) = (   0.0000000   0.0555556  -0.5000000), wk =   0.0082305
        k(   20) = (   0.0000000   0.0555556  -0.4444444), wk =   0.0082305
        k(   21) = (   0.0000000   0.0555556  -0.3888889), wk =   0.0082305
        k(   22) = (   0.0000000   0.0555556  -0.3333333), wk =   0.0082305
        k(   23) = (   0.0000000   0.0555556  -0.2777778), wk =   0.0082305
        k(   24) = (   0.0000000   0.0555556  -0.2222222), wk =   0.0082305
        k(   25) = (   0.0000000   0.0555556  -0.1666667), wk =   0.0082305
        k(   26) = (   0.0000000   0.0555556  -0.1111111), wk =   0.0082305
        k(   27) = (   0.0000000   0.0555556  -0.0555556), wk =   0.0041152
        k(   28) = (   0.0000000   0.1111111   0.1111111), wk =   0.0020576
        k(   29) = (   0.0000000   0.1111111   0.1666667), wk =   0.0082305
        k(   30) = (   0.0000000   0.1111111   0.2222222), wk =   0.0082305
        k(   31) = (   0.0000000   0.1111111   0.2777778), wk =   0.0082305
        k(   32) = (   0.0000000   0.1111111   0.3333333), wk =   0.0082305
        k(   33) = (   0.0000000   0.1111111   0.3888889), wk =   0.0082305
        k(   34) = (   0.0000000   0.1111111   0.4444444), wk =   0.0082305
        k(   35) = (   0.0000000   0.1111111  -0.5000000), wk =   0.0082305
        k(   36) = (   0.0000000   0.1111111  -0.4444444), wk =   0.0082305
        k(   37) = (   0.0000000   0.1111111  -0.3888889), wk =   0.0082305
        k(   38) = (   0.0000000   0.1111111  -0.3333333), wk =   0.0082305
        k(   39) = (   0.0000000   0.1111111  -0.2777778), wk =   0.0082305
        k(   40) = (   0.0000000   0.1111111  -0.2222222), wk =   0.0082305
        k(   41) = (   0.0000000   0.1111111  -0.1666667), wk =   0.0082305
        k(   42) = (   0.0000000   0.1111111  -0.1111111), wk =   0.0041152
        k(   43) = (   0.0000000   0.1666667   0.1666667), wk =   0.0020576
        k(   44) = (   0.0000000   0.1666667   0.2222222), wk =   0.0082305
        k(   45) = (   0.0000000   0.1666667   0.2777778), wk =   0.0082305
        k(   46) = (   0.0000000   0.1666667   0.3333333), wk =   0.0082305
        k(   47) = (   0.0000000   0.1666667   0.3888889), wk =   0.0082305
        k(   48) = (   0.0000000   0.1666667   0.4444444), wk =   0.0082305
        k(   49) = (   0.0000000   0.1666667  -0.5000000), wk =   0.0082305
        k(   50) = (   0.0000000   0.1666667  -0.4444444), wk =   0.0082305
        k(   51) = (   0.0000000   0.1666667  -0.3888889), wk =   0.0082305
        k(   52) = (   0.0000000   0.1666667  -0.3333333), wk =   0.0082305
        k(   53) = (   0.0000000   0.1666667  -0.2777778), wk =   0.0082305
        k(   54) = (   0.0000000   0.1666667  -0.2222222), wk =   0.0082305
        k(   55) = (   0.0000000   0.1666667  -0.1666667), wk =   0.0041152
        k(   56) = (   0.0000000   0.2222222   0.2222222), wk =   0.0020576
        k(   57) = (   0.0000000   0.2222222   0.2777778), wk =   0.0082305
        k(   58) = (   0.0000000   0.2222222   0.3333333), wk =   0.0082305
        k(   59) = (   0.0000000   0.2222222   0.3888889), wk =   0.0082305
        k(   60) = (   0.0000000   0.2222222   0.4444444), wk =   0.0082305
        k(   61) = (   0.0000000   0.2222222  -0.5000000), wk =   0.0082305
        k(   62) = (   0.0000000   0.2222222  -0.4444444), wk =   0.0082305
        k(   63) = (   0.0000000   0.2222222  -0.3888889), wk =   0.0082305
        k(   64) = (   0.0000000   0.2222222  -0.3333333), wk =   0.0082305
        k(   65) = (   0.0000000   0.2222222  -0.2777778), wk =   0.0082305
        k(   66) = (   0.0000000   0.2222222  -0.2222222), wk =   0.0041152
        k(   67) = (   0.0000000   0.2777778   0.2777778), wk =   0.0020576
        k(   68) = (   0.0000000   0.2777778   0.3333333), wk =   0.0082305
        k(   69) = (   0.0000000   0.2777778   0.3888889), wk =   0.0082305
        k(   70) = (   0.0000000   0.2777778   0.4444444), wk =   0.0082305
        k(   71) = (   0.0000000   0.2777778  -0.5000000), wk =   0.0082305
        k(   72) = (   0.0000000   0.2777778  -0.4444444), wk =   0.0082305
        k(   73) = (   0.0000000   0.2777778  -0.3888889), wk =   0.0082305
        k(   74) = (   0.0000000   0.2777778  -0.3333333), wk =   0.0082305
        k(   75) = (   0.0000000   0.2777778  -0.2777778), wk =   0.0041152
        k(   76) = (   0.0000000   0.3333333   0.3333333), wk =   0.0020576
        k(   77) = (   0.0000000   0.3333333   0.3888889), wk =   0.0082305
        k(   78) = (   0.0000000   0.3333333   0.4444444), wk =   0.0082305
        k(   79) = (   0.0000000   0.3333333  -0.5000000), wk =   0.0082305
        k(   80) = (   0.0000000   0.3333333  -0.4444444), wk =   0.0082305
        k(   81) = (   0.0000000   0.3333333  -0.3888889), wk =   0.0082305
        k(   82) = (   0.0000000   0.3333333  -0.3333333), wk =   0.0041152
        k(   83) = (   0.0000000   0.3888889   0.3888889), wk =   0.0020576
        k(   84) = (   0.0000000   0.3888889   0.4444444), wk =   0.0082305
        k(   85) = (   0.0000000   0.3888889  -0.5000000), wk =   0.0082305
        k(   86) = (   0.0000000   0.3888889  -0.4444444), wk =   0.0082305
        k(   87) = (   0.0000000   0.3888889  -0.3888889), wk =   0.0041152
        k(   88) = (   0.0000000   0.4444444   0.4444444), wk =   0.0020576
        k(   89) = (   0.0000000   0.4444444  -0.5000000), wk =   0.0082305
        k(   90) = (   0.0000000   0.4444444  -0.4444444), wk =   0.0041152
        k(   91) = (   0.0000000  -0.5000000  -0.5000000), wk =   0.0010288
        k(   92) = (   0.0555556   0.1111111   0.1666667), wk =   0.0082305
        k(   93) = (   0.0555556   0.1111111   0.2222222), wk =   0.0164609
        k(   94) = (   0.0555556   0.1111111   0.2777778), wk =   0.0164609
        k(   95) = (   0.0555556   0.1111111   0.3333333), wk =   0.0164609
        k(   96) = (   0.0555556   0.1111111   0.3888889), wk =   0.0164609
        k(   97) = (   0.0555556   0.1111111   0.4444444), wk =   0.0164609
        k(   98) = (   0.0555556   0.1111111  -0.5000000), wk =   0.0164609
        k(   99) = (   0.0555556   0.1111111  -0.4444444), wk =   0.0082305
        k(  100) = (   0.0555556   0.1666667   0.2222222), wk =   0.0082305
        k(  101) = (   0.0555556   0.1666667   0.2777778), wk =   0.0164609
        k(  102) = (   0.0555556   0.1666667   0.3333333), wk =   0.0164609
        k(  103) = (   0.0555556   0.1666667   0.3888889), wk =   0.0164609
        k(  104) = (   0.0555556   0.1666667   0.4444444), wk =   0.0164609
        k(  105) = (   0.0555556   0.1666667  -0.5000000), wk =   0.0164609
        k(  106) = (   0.0555556   0.1666667  -0.4444444), wk =   0.0164609
        k(  107) = (   0.0555556   0.1666667  -0.3888889), wk =   0.0164609
        k(  108) = (   0.0555556   0.1666667  -0.3333333), wk =   0.0164609
        k(  109) = (   0.0555556   0.1666667  -0.2777778), wk =   0.0164609
        k(  110) = (   0.0555556   0.1666667  -0.2222222), wk =   0.0164609
        k(  111) = (   0.0555556   0.1666667  -0.1666667), wk =   0.0164609
        k(  112) = (   0.0555556   0.1666667  -0.1111111), wk =   0.0082305
        k(  113) = (   0.0555556   0.2222222   0.2777778), wk =   0.0082305
        k(  114) = (   0.0555556   0.2222222   0.3333333), wk =   0.0164609
        k(  115) = (   0.0555556   0.2222222   0.3888889), wk =   0.0164609
        k(  116) = (   0.0555556   0.2222222   0.4444444), wk =   0.0164609
        k(  117) = (   0.0555556   0.2222222  -0.5000000), wk =   0.0164609
        k(  118) = (   0.0555556   0.2222222  -0.4444444), wk =   0.0164609
        k(  119) = (   0.0555556   0.2222222  -0.3888889), wk =   0.0164609
        k(  120) = (   0.0555556   0.2222222  -0.3333333), wk =   0.0164609
        k(  121) = (   0.0555556   0.2222222  -0.2777778), wk =   0.0164609
        k(  122) = (   0.0555556   0.2222222  -0.2222222), wk =   0.0164609
        k(  123) = (   0.0555556   0.2222222  -0.1666667), wk =   0.0082305
        k(  124) = (   0.0555556   0.2777778   0.3333333), wk =   0.0082305
        k(  125) = (   0.0555556   0.2777778   0.3888889), wk =   0.0164609
        k(  126) = (   0.0555556   0.2777778   0.4444444), wk =   0.0164609
        k(  127) = (   0.0555556   0.2777778  -0.5000000), wk =   0.0164609
        k(  128) = (   0.0555556   0.2777778  -0.4444444), wk =   0.0164609
        k(  129) = (   0.0555556   0.2777778  -0.3888889), wk =   0.0164609
        k(  130) = (   0.0555556   0.2777778  -0.3333333), wk =   0.0164609
        k(  131) = (   0.0555556   0.2777778  -0.2777778), wk =   0.0164609
        k(  132) = (   0.0555556   0.2777778  -0.2222222), wk =   0.0082305
        k(  133) = (   0.0555556   0.3333333   0.3888889), wk =   0.0082305
        k(  134) = (   0.0555556   0.3333333   0.4444444), wk =   0.0164609
        k(  135) = (   0.0555556   0.3333333  -0.5000000), wk =   0.0164609
        k(  136) = (   0.0555556   0.3333333  -0.4444444), wk =   0.0164609
        k(  137) = (   0.0555556   0.3333333  -0.3888889), wk =   0.0164609
        k(  138) = (   0.0555556   0.3333333  -0.3333333), wk =   0.0164609
        k(  139) = (   0.0555556   0.3333333  -0.2777778), wk =   0.0082305
        k(  140) = (   0.0555556   0.3888889   0.4444444), wk =   0.0082305
        k(  141) = (   0.0555556   0.3888889  -0.5000000), wk =   0.0164609
        k(  142) = (   0.0555556   0.3888889  -0.4444444), wk =   0.0164609
        k(  143) = (   0.0555556   0.3888889  -0.3888889), wk =   0.0164609
        k(  144) = (   0.0555556   0.3888889  -0.3333333), wk =   0.0082305
        k(  145) = (   0.0555556   0.4444444  -0.5000000), wk =   0.0082305
        k(  146) = (   0.0555556   0.4444444  -0.4444444), wk =   0.0164609
        k(  147) = (   0.0555556   0.4444444  -0.3888889), wk =   0.0082305
        k(  148) = (   0.0555556  -0.5000000  -0.4444444), wk =   0.0041152
        k(  149) = (   0.1111111   0.2222222   0.3333333), wk =   0.0082305
        k(  150) = (   0.1111111   0.2222222   0.3888889), wk =   0.0164609
        k(  151) = (   0.1111111   0.2222222   0.4444444), wk =   0.0164609
        k(  152) = (   0.1111111   0.2222222  -0.5000000), wk =   0.0164609
        k(  153) = (   0.1111111   0.2222222  -0.4444444), wk =   0.0164609
        k(  154) = (   0.1111111   0.2222222  -0.3888889), wk =   0.0082305
        k(  155) = (   0.1111111   0.2777778   0.3888889), wk =   0.0082305
        k(  156) = (   0.1111111   0.2777778   0.4444444), wk =   0.0164609
        k(  157) = (   0.1111111   0.2777778  -0.5000000), wk =   0.0164609
        k(  158) = (   0.1111111   0.2777778  -0.4444444), wk =   0.0164609
        k(  159) = (   0.1111111   0.2777778  -0.3888889), wk =   0.0164609
        k(  160) = (   0.1111111   0.2777778  -0.3333333), wk =   0.0164609
        k(  161) = (   0.1111111   0.2777778  -0.2777778), wk =   0.0164609
        k(  162) = (   0.1111111   0.2777778  -0.2222222), wk =   0.0164609
        k(  163) = (   0.1111111   0.2777778  -0.1666667), wk =   0.0082305
        k(  164) = (   0.1111111   0.3333333   0.4444444), wk =   0.0082305
        k(  165) = (   0.1111111   0.3333333  -0.5000000), wk =   0.0164609
        k(  166) = (   0.1111111   0.3333333  -0.4444444), wk =   0.0164609
        k(  167) = (   0.1111111   0.3333333  -0.3888889), wk =   0.0164609
        k(  168) = (   0.1111111   0.3333333  -0.3333333), wk =   0.0164609
        k(  169) = (   0.1111111   0.3333333  -0.2777778), wk =   0.0164609
        k(  170) = (   0.1111111   0.3333333  -0.2222222), wk =   0.0082305
        k(  171) = (   0.1111111   0.3888889  -0.5000000), wk =   0.0082305
        k(  172) = (   0.1111111   0.3888889  -0.4444444), wk =   0.0164609
        k(  173) = (   0.1111111   0.3888889  -0.3888889), wk =   0.0164609
        k(  174) = (   0.1111111   0.3888889  -0.3333333), wk =   0.0164609
        k(  175) = (   0.1111111   0.3888889  -0.2777778), wk =   0.0082305
        k(  176) = (   0.1111111   0.4444444  -0.4444444), wk =   0.0082305
        k(  177) = (   0.1111111   0.4444444  -0.3888889), wk =   0.0164609
        k(  178) = (   0.1111111   0.4444444  -0.3333333), wk =   0.0082305
        k(  179) = (   0.1111111  -0.5000000  -0.3888889), wk =   0.0041152
        k(  180) = (   0.1666667   0.3333333  -0.5000000), wk =   0.0082305
        k(  181) = (   0.1666667   0.3333333  -0.4444444), wk =   0.0164609
        k(  182) = (   0.1666667   0.3333333  -0.3888889), wk =   0.0164609
        k(  183) = (   0.1666667   0.3333333  -0.3333333), wk =   0.0082305
        k(  184) = (   0.1666667   0.3888889  -0.4444444), wk =   0.0082305
        k(  185) = (   0.1666667   0.3888889  -0.3888889), wk =   0.0164609
        k(  186) = (   0.1666667   0.3888889  -0.3333333), wk =   0.0164609
        k(  187) = (   0.1666667   0.3888889  -0.2777778), wk =   0.0164609
        k(  188) = (   0.1666667   0.3888889  -0.2222222), wk =   0.0082305
        k(  189) = (   0.1666667   0.4444444  -0.3888889), wk =   0.0082305
        k(  190) = (   0.1666667   0.4444444  -0.3333333), wk =   0.0164609
        k(  191) = (   0.1666667   0.4444444  -0.2777778), wk =   0.0082305
        k(  192) = (   0.1666667  -0.5000000  -0.3333333), wk =   0.0041152
        k(  193) = (   0.2222222   0.4444444  -0.3333333), wk =   0.0082305
        k(  194) = (   0.2222222   0.4444444  -0.2777778), wk =   0.0082305
        k(  195) = (   0.2222222  -0.5000000  -0.2777778), wk =   0.0041152

     Dense  grid:    43895 G-vectors     FFT dimensions: (  50,  50,  50)

     Smooth grid:    15593 G-vectors     FFT dimensions: (  36,  36,  36)

     Dynamical RAM for                 wfc:       0.24 MB

     Dynamical RAM for     wfc (w. buffer):       0.24 MB

     Dynamical RAM for           str. fact:       0.67 MB

     Dynamical RAM for           local pot:       0.00 MB

     Dynamical RAM for          nlocal pot:       0.53 MB

     Dynamical RAM for                qrad:       1.90 MB

     Dynamical RAM for          rho,v,vnew:       4.87 MB

     Dynamical RAM for           G-vectors:       2.63 MB

     Dynamical RAM for          h,s,v(r/c):       0.01 MB

     Dynamical RAM for          <psi|beta>:       0.00 MB

     Dynamical RAM for                 psi:       0.47 MB

     Dynamical RAM for                hpsi:       0.47 MB

     Dynamical RAM for                spsi:       0.47 MB

     Dynamical RAM for      wfcinit/wfcrot:       0.53 MB

     Dynamical RAM for           addusdens:     125.25 MB

     Estimated static dynamical RAM per process >      16.95 MB

     Estimated max dynamical RAM per process >     142.20 MB

     The potential is recalculated from file :
     /home/elena/AEP_DFT/DFT/tmp/bands/Pb.save/charge-density

     Starting wfcs are    9 randomized atomic wfcs

     Band Structure Calculation
     Davidson diagonalization with overlap

     Computing kpt #:     1  of   195
     total cpu time spent up to now is        2.0 secs

     Computing kpt #:     2  of   195
     total cpu time spent up to now is        2.3 secs

     Computing kpt #:     3  of   195
     total cpu time spent up to now is        2.6 secs

     Computing kpt #:     4  of   195
     total cpu time spent up to now is        2.8 secs

     Computing kpt #:     5  of   195
     total cpu time spent up to now is        3.0 secs

     Computing kpt #:     6  of   195
     total cpu time spent up to now is        3.2 secs

     Computing kpt #:     7  of   195
     total cpu time spent up to now is        3.4 secs

     Computing kpt #:     8  of   195
     total cpu time spent up to now is        3.5 secs

     Computing kpt #:     9  of   195
     total cpu time spent up to now is        3.7 secs

     Computing kpt #:    10  of   195
     total cpu time spent up to now is        3.9 secs

     Computing kpt #:    11  of   195
     total cpu time spent up to now is        4.3 secs

     Computing kpt #:    12  of   195
     total cpu time spent up to now is        4.6 secs

     Computing kpt #:    13  of   195
     total cpu time spent up to now is        4.8 secs

     Computing kpt #:    14  of   195
     total cpu time spent up to now is        5.1 secs

     Computing kpt #:    15  of   195
     total cpu time spent up to now is        5.3 secs

     Computing kpt #:    16  of   195
     total cpu time spent up to now is        5.6 secs

     Computing kpt #:    17  of   195
     total cpu time spent up to now is        5.8 secs

     Computing kpt #:    18  of   195
     total cpu time spent up to now is        6.1 secs

     Computing kpt #:    19  of   195
     total cpu time spent up to now is        6.3 secs

     Computing kpt #:    20  of   195
     total cpu time spent up to now is        6.6 secs

     Computing kpt #:    21  of   195
     total cpu time spent up to now is        6.8 secs

     Computing kpt #:    22  of   195
     total cpu time spent up to now is        7.0 secs

     Computing kpt #:    23  of   195
     total cpu time spent up to now is        7.2 secs

     Computing kpt #:    24  of   195
     total cpu time spent up to now is        7.4 secs

     Computing kpt #:    25  of   195
     total cpu time spent up to now is        7.6 secs

     Computing kpt #:    26  of   195
     total cpu time spent up to now is        7.8 secs

     Computing kpt #:    27  of   195
     total cpu time spent up to now is        8.1 secs

     Computing kpt #:    28  of   195
     total cpu time spent up to now is        8.3 secs

     Computing kpt #:    29  of   195
     total cpu time spent up to now is        8.5 secs

     Computing kpt #:    30  of   195
     total cpu time spent up to now is        8.8 secs

     Computing kpt #:    31  of   195
     total cpu time spent up to now is        9.1 secs

     Computing kpt #:    32  of   195
     total cpu time spent up to now is        9.3 secs

     Computing kpt #:    33  of   195
     total cpu time spent up to now is        9.5 secs

     Computing kpt #:    34  of   195
     total cpu time spent up to now is        9.8 secs

     Computing kpt #:    35  of   195
     total cpu time spent up to now is       10.0 secs

     Computing kpt #:    36  of   195
     total cpu time spent up to now is       10.2 secs

     Computing kpt #:    37  of   195
     total cpu time spent up to now is       10.4 secs

     Computing kpt #:    38  of   195
     total cpu time spent up to now is       10.6 secs

     Computing kpt #:    39  of   195
     total cpu time spent up to now is       10.8 secs

     Computing kpt #:    40  of   195
     total cpu time spent up to now is       11.0 secs

     Computing kpt #:    41  of   195
     total cpu time spent up to now is       11.3 secs

     Computing kpt #:    42  of   195
     total cpu time spent up to now is       11.5 secs

     Computing kpt #:    43  of   195
     total cpu time spent up to now is       11.7 secs

     Computing kpt #:    44  of   195
     total cpu time spent up to now is       12.0 secs

     Computing kpt #:    45  of   195
     total cpu time spent up to now is       12.2 secs

     Computing kpt #:    46  of   195
     total cpu time spent up to now is       12.4 secs

     Computing kpt #:    47  of   195
     total cpu time spent up to now is       12.6 secs

     Computing kpt #:    48  of   195
     total cpu time spent up to now is       12.8 secs

     Computing kpt #:    49  of   195
     total cpu time spent up to now is       13.0 secs

     Computing kpt #:    50  of   195
     total cpu time spent up to now is       13.2 secs

     Computing kpt #:    51  of   195
     total cpu time spent up to now is       13.4 secs

     Computing kpt #:    52  of   195
     total cpu time spent up to now is       13.6 secs

     Computing kpt #:    53  of   195
     total cpu time spent up to now is       13.9 secs

     Computing kpt #:    54  of   195
     total cpu time spent up to now is       14.1 secs

     Computing kpt #:    55  of   195
     total cpu time spent up to now is       14.3 secs

     Computing kpt #:    56  of   195
     total cpu time spent up to now is       14.5 secs

     Computing kpt #:    57  of   195
     total cpu time spent up to now is       14.9 secs

     Computing kpt #:    58  of   195
     total cpu time spent up to now is       15.1 secs

     Computing kpt #:    59  of   195
     total cpu time spent up to now is       15.4 secs

     Computing kpt #:    60  of   195
     total cpu time spent up to now is       15.6 secs

     Computing kpt #:    61  of   195
     total cpu time spent up to now is       15.8 secs

     Computing kpt #:    62  of   195
     total cpu time spent up to now is       16.1 secs

     Computing kpt #:    63  of   195
     total cpu time spent up to now is       16.3 secs

     Computing kpt #:    64  of   195
     total cpu time spent up to now is       16.4 secs

     Computing kpt #:    65  of   195
     total cpu time spent up to now is       16.6 secs

     Computing kpt #:    66  of   195
     total cpu time spent up to now is       16.8 secs

     Computing kpt #:    67  of   195
     total cpu time spent up to now is       17.0 secs

     Computing kpt #:    68  of   195
     total cpu time spent up to now is       17.2 secs

     Computing kpt #:    69  of   195
     total cpu time spent up to now is       17.4 secs

     Computing kpt #:    70  of   195
     total cpu time spent up to now is       17.6 secs

     Computing kpt #:    71  of   195
     total cpu time spent up to now is       17.8 secs

     Computing kpt #:    72  of   195
     total cpu time spent up to now is       18.0 secs

     Computing kpt #:    73  of   195
     total cpu time spent up to now is       18.1 secs

     Computing kpt #:    74  of   195
     total cpu time spent up to now is       18.3 secs

     Computing kpt #:    75  of   195
     total cpu time spent up to now is       18.4 secs

     Computing kpt #:    76  of   195
     total cpu time spent up to now is       18.6 secs

     Computing kpt #:    77  of   195
     total cpu time spent up to now is       18.8 secs

     Computing kpt #:    78  of   195
     total cpu time spent up to now is       19.0 secs

     Computing kpt #:    79  of   195
     total cpu time spent up to now is       19.2 secs

     Computing kpt #:    80  of   195
     total cpu time spent up to now is       19.3 secs

     Computing kpt #:    81  of   195
     total cpu time spent up to now is       19.5 secs

     Computing kpt #:    82  of   195
     total cpu time spent up to now is       19.7 secs

     Computing kpt #:    83  of   195
     total cpu time spent up to now is       19.8 secs

     Computing kpt #:    84  of   195
     total cpu time spent up to now is       20.0 secs

     Computing kpt #:    85  of   195
     total cpu time spent up to now is       20.2 secs

     Computing kpt #:    86  of   195
     total cpu time spent up to now is       20.4 secs

     Computing kpt #:    87  of   195
     total cpu time spent up to now is       20.5 secs

     Computing kpt #:    88  of   195
     total cpu time spent up to now is       20.7 secs

     Computing kpt #:    89  of   195
     total cpu time spent up to now is       20.9 secs

     Computing kpt #:    90  of   195
     total cpu time spent up to now is       21.1 secs

     Computing kpt #:    91  of   195
     total cpu time spent up to now is       21.3 secs

     Computing kpt #:    92  of   195
     total cpu time spent up to now is       21.5 secs

     Computing kpt #:    93  of   195
     total cpu time spent up to now is       21.7 secs

     Computing kpt #:    94  of   195
     total cpu time spent up to now is       21.9 secs

     Computing kpt #:    95  of   195
     total cpu time spent up to now is       22.0 secs

     Computing kpt #:    96  of   195
     total cpu time spent up to now is       22.2 secs

     Computing kpt #:    97  of   195
     total cpu time spent up to now is       22.4 secs

     Computing kpt #:    98  of   195
     total cpu time spent up to now is       22.6 secs

     Computing kpt #:    99  of   195
     total cpu time spent up to now is       22.8 secs

     Computing kpt #:   100  of   195
     total cpu time spent up to now is       23.0 secs

     Computing kpt #:   101  of   195
     total cpu time spent up to now is       23.2 secs

     Computing kpt #:   102  of   195
     total cpu time spent up to now is       23.4 secs

     Computing kpt #:   103  of   195
     total cpu time spent up to now is       23.5 secs

     Computing kpt #:   104  of   195
     total cpu time spent up to now is       23.7 secs

     Computing kpt #:   105  of   195
     total cpu time spent up to now is       23.9 secs

     Computing kpt #:   106  of   195
     total cpu time spent up to now is       24.1 secs

     Computing kpt #:   107  of   195
     total cpu time spent up to now is       24.3 secs

     Computing kpt #:   108  of   195
     total cpu time spent up to now is       24.5 secs

     Computing kpt #:   109  of   195
     total cpu time spent up to now is       24.7 secs

     Computing kpt #:   110  of   195
     total cpu time spent up to now is       24.9 secs

     Computing kpt #:   111  of   195
     total cpu time spent up to now is       25.0 secs

     Computing kpt #:   112  of   195
     total cpu time spent up to now is       25.2 secs

     Computing kpt #:   113  of   195
     total cpu time spent up to now is       25.4 secs

     Computing kpt #:   114  of   195
     total cpu time spent up to now is       25.8 secs

     Computing kpt #:   115  of   195
     total cpu time spent up to now is       26.0 secs

     Computing kpt #:   116  of   195
     total cpu time spent up to now is       26.2 secs

     Computing kpt #:   117  of   195
     total cpu time spent up to now is       26.4 secs

     Computing kpt #:   118  of   195
     total cpu time spent up to now is       26.5 secs

     Computing kpt #:   119  of   195
     total cpu time spent up to now is       26.7 secs

     Computing kpt #:   120  of   195
     total cpu time spent up to now is       27.0 secs

     Computing kpt #:   121  of   195
     total cpu time spent up to now is       27.2 secs

     Computing kpt #:   122  of   195
     total cpu time spent up to now is       27.4 secs

     Computing kpt #:   123  of   195
     total cpu time spent up to now is       27.6 secs

     Computing kpt #:   124  of   195
     total cpu time spent up to now is       27.8 secs

     Computing kpt #:   125  of   195
     total cpu time spent up to now is       28.1 secs

     Computing kpt #:   126  of   195
     total cpu time spent up to now is       28.2 secs

     Computing kpt #:   127  of   195
     total cpu time spent up to now is       28.5 secs

     Computing kpt #:   128  of   195
     total cpu time spent up to now is       28.7 secs

     Computing kpt #:   129  of   195
     total cpu time spent up to now is       28.9 secs

     Computing kpt #:   130  of   195
     total cpu time spent up to now is       29.0 secs

     Computing kpt #:   131  of   195
     total cpu time spent up to now is       29.2 secs

     Computing kpt #:   132  of   195
     total cpu time spent up to now is       29.3 secs

     Computing kpt #:   133  of   195
     total cpu time spent up to now is       29.6 secs

     Computing kpt #:   134  of   195
     total cpu time spent up to now is       29.8 secs

     Computing kpt #:   135  of   195
     total cpu time spent up to now is       30.0 secs

     Computing kpt #:   136  of   195
     total cpu time spent up to now is       30.2 secs

     Computing kpt #:   137  of   195
     total cpu time spent up to now is       30.4 secs

     Computing kpt #:   138  of   195
     total cpu time spent up to now is       30.6 secs

     Computing kpt #:   139  of   195
     total cpu time spent up to now is       30.7 secs

     Computing kpt #:   140  of   195
     total cpu time spent up to now is       31.0 secs

     Computing kpt #:   141  of   195
     total cpu time spent up to now is       31.2 secs

     Computing kpt #:   142  of   195
     total cpu time spent up to now is       31.4 secs

     Computing kpt #:   143  of   195
     total cpu time spent up to now is       31.6 secs

     Computing kpt #:   144  of   195
     total cpu time spent up to now is       31.8 secs

     Computing kpt #:   145  of   195
     total cpu time spent up to now is       32.0 secs

     Computing kpt #:   146  of   195
     total cpu time spent up to now is       32.3 secs

     Computing kpt #:   147  of   195
     total cpu time spent up to now is       32.5 secs

     Computing kpt #:   148  of   195
     total cpu time spent up to now is       32.7 secs

     Computing kpt #:   149  of   195
     total cpu time spent up to now is       32.9 secs

     Computing kpt #:   150  of   195
     total cpu time spent up to now is       33.1 secs

     Computing kpt #:   151  of   195
     total cpu time spent up to now is       33.3 secs

     Computing kpt #:   152  of   195
     total cpu time spent up to now is       33.5 secs

     Computing kpt #:   153  of   195
     total cpu time spent up to now is       33.7 secs

     Computing kpt #:   154  of   195
     total cpu time spent up to now is       33.8 secs

     Computing kpt #:   155  of   195
     total cpu time spent up to now is       34.0 secs

     Computing kpt #:   156  of   195
     total cpu time spent up to now is       34.2 secs

     Computing kpt #:   157  of   195
     total cpu time spent up to now is       34.4 secs

     Computing kpt #:   158  of   195
     total cpu time spent up to now is       34.6 secs

     Computing kpt #:   159  of   195
     total cpu time spent up to now is       34.8 secs

     Computing kpt #:   160  of   195
     total cpu time spent up to now is       34.9 secs

     Computing kpt #:   161  of   195
     total cpu time spent up to now is       35.1 secs

     Computing kpt #:   162  of   195
     total cpu time spent up to now is       35.3 secs

     Computing kpt #:   163  of   195
     total cpu time spent up to now is       35.5 secs

     Computing kpt #:   164  of   195
     total cpu time spent up to now is       35.8 secs

     Computing kpt #:   165  of   195
     total cpu time spent up to now is       36.0 secs

     Computing kpt #:   166  of   195
     total cpu time spent up to now is       36.2 secs

     Computing kpt #:   167  of   195
     total cpu time spent up to now is       36.5 secs

     Computing kpt #:   168  of   195
     total cpu time spent up to now is       36.6 secs

     Computing kpt #:   169  of   195
     total cpu time spent up to now is       36.8 secs

     Computing kpt #:   170  of   195
     total cpu time spent up to now is       37.0 secs

     Computing kpt #:   171  of   195
     total cpu time spent up to now is       37.2 secs

     Computing kpt #:   172  of   195
     total cpu time spent up to now is       37.4 secs

     Computing kpt #:   173  of   195
     total cpu time spent up to now is       37.6 secs

     Computing kpt #:   174  of   195
     total cpu time spent up to now is       37.9 secs

     Computing kpt #:   175  of   195
     total cpu time spent up to now is       38.0 secs

     Computing kpt #:   176  of   195
     total cpu time spent up to now is       38.3 secs

     Computing kpt #:   177  of   195
     total cpu time spent up to now is       38.5 secs

     Computing kpt #:   178  of   195
     total cpu time spent up to now is       38.7 secs

     Computing kpt #:   179  of   195
     total cpu time spent up to now is       38.9 secs

     Computing kpt #:   180  of   195
     total cpu time spent up to now is       39.1 secs

     Computing kpt #:   181  of   195
     total cpu time spent up to now is       39.3 secs

     Computing kpt #:   182  of   195
     total cpu time spent up to now is       39.5 secs

     Computing kpt #:   183  of   195
     total cpu time spent up to now is       39.7 secs

     Computing kpt #:   184  of   195
     total cpu time spent up to now is       39.9 secs

     Computing kpt #:   185  of   195
     total cpu time spent up to now is       40.2 secs

     Computing kpt #:   186  of   195
     total cpu time spent up to now is       40.4 secs

     Computing kpt #:   187  of   195
     total cpu time spent up to now is       40.6 secs

     Computing kpt #:   188  of   195
     total cpu time spent up to now is       40.8 secs

     Computing kpt #:   189  of   195
     total cpu time spent up to now is       41.0 secs

     Computing kpt #:   190  of   195
     total cpu time spent up to now is       41.2 secs

     Computing kpt #:   191  of   195
     total cpu time spent up to now is       41.5 secs

     Computing kpt #:   192  of   195
     total cpu time spent up to now is       41.7 secs

     Computing kpt #:   193  of   195
     total cpu time spent up to now is       41.9 secs

     Computing kpt #:   194  of   195
     total cpu time spent up to now is       42.1 secs

     Computing kpt #:   195  of   195
     total cpu time spent up to now is       42.4 secs

     ethr =  7.14E-12,  avg # of iterations = 27.5

     Warning: ef = 11.939682 is above the highest band at k-point  72
              e  =  11.915571

     Warning: ef = 11.939682 is above the highest band at k-point  73
              e  =  11.464842

     Warning: ef = 11.939682 is above the highest band at k-point  74
              e  =  11.249108

     Warning: ef = 11.939682 is above the highest band at k-point  75
              e  =  11.550154

     Warning: ef = 11.939682 is above the highest band at k-point  80
              e  =  11.379779

     Warning: ef = 11.939682 is above the highest band at k-point  81
              e  =  10.623555

     Warning: ef = 11.939682 is above the highest band at k-point  82
              e  =  10.237030

     Warning: ef = 11.939682 is above the highest band at k-point  86
              e  =  11.804818

     Warning: ef = 11.939682 is above the highest band at k-point  87
              e  =  10.907859

     Warning: ef = 11.939682 is above the highest band at k-point 131
              e  =  11.916758

     Warning: ef = 11.939682 is above the highest band at k-point 136
              e  =  11.898641

     Warning: ef = 11.939682 is above the highest band at k-point 137
              e  =  11.232984

     Warning: ef = 11.939682 is above the highest band at k-point 138
              e  =  10.789338

     Warning: ef = 11.939682 is above the highest band at k-point 139
              e  =  10.898022

     Warning: ef = 11.939682 is above the highest band at k-point 143
              e  =  11.059535

     Warning: ef = 11.939682 is above the highest band at k-point 144
              e  =  10.315138

     Warning: ef = 11.939682 is above the highest band at k-point 147
              e  =  11.781251

     Warning: ef = 11.939682 is above the highest band at k-point 167
              e  =  11.843325

     Warning: ef = 11.939682 is above the highest band at k-point 168
              e  =  11.489462

     Warning: ef = 11.939682 is above the highest band at k-point 169
              e  =  11.356704

     Warning: ef = 11.939682 is above the highest band at k-point 170
              e  =  11.707483

     Warning: ef = 11.939682 is above the highest band at k-point 173
              e  =  11.424461

     Warning: ef = 11.939682 is above the highest band at k-point 174
              e  =  10.697592

     Warning: ef = 11.939682 is above the highest band at k-point 175
              e  =  10.416433

     Warning: ef = 11.939682 is above the highest band at k-point 177
              e  =  11.921015

     Warning: ef = 11.939682 is above the highest band at k-point 178
              e  =  11.017247

     Warning: ef = 11.939682 is above the highest band at k-point 182
              e  =  11.921903

     Warning: ef = 11.939682 is above the highest band at k-point 183
              e  =  11.881298

     Warning: ef = 11.939682 is above the highest band at k-point 185
              e  =  11.571651

     Warning: ef = 11.939682 is above the highest band at k-point 186
              e  =  11.145959

     Warning: ef = 11.939682 is above the highest band at k-point 187
              e  =  10.941652

     Warning: ef = 11.939682 is above the highest band at k-point 188
              e  =  11.232726

     Warning: ef = 11.939682 is above the highest band at k-point 189
              e  =  11.871838

     Warning: ef = 11.939682 is above the highest band at k-point 190
              e  =  11.143910

     Warning: ef = 11.939682 is above the highest band at k-point 191
              e  =  10.424644

     Warning: ef = 11.939682 is above the highest band at k-point 192
              e  =  11.774544

     Warning: ef = 11.939682 is above the highest band at k-point 193
              e  =  10.941739

     Warning: ef = 11.939682 is above the highest band at k-point 194
              e  =  10.600273

     Warning: ef = 11.939682 is above the highest band at k-point 195
              e  =  10.843686

     total cpu time spent up to now is       42.6 secs

     End of band structure calculation

          k = 0.0000 0.0000 0.0000 (  1917 PWs)   bands (ev):

    -5.2362  -5.2362  -5.2362  -5.0771  -5.0771  -0.1825  19.6427  19.6427

     occupation numbers 
     1.0000   1.0000   1.0000   1.0000   1.0000   1.0000   0.0000   0.0000

          k =-0.0556 0.0556-0.0556 (  1938 PWs)   bands (ev):

    -5.2365  -5.2311  -5.2311  -5.0778  -5.0778  -0.1205  18.8281  19.5603

     occupation numbers 
     1.0000   1.0000   1.0000   1.0000   1.0000   1.0000   0.0000   0.0000

          k =-0.1111 0.1111-0.1111 (  1940 PWs)   bands (ev):

    -5.2376  -5.2178  -5.2178  -5.0775  -5.0775   0.0660  17.1716  19.3397

     occupation numbers 
     1.0000   1.0000   1.0000   1.0000   1.0000   1.0000   0.0000   0.0000

          k =-0.1667 0.1667-0.1667 (  1940 PWs)   bands (ev):

    -5.2404  -5.2030  -5.2030  -5.0712  -5.0712   0.3775  15.3525  19.0378

     occupation numbers 
     1.0000   1.0000   1.0000   1.0000   1.0000   1.0000   0.0000   0.0000

          k =-0.2222 0.2222-0.2222 (  1943 PWs)   bands (ev):

    -5.2453  -5.1959  -5.1959  -5.0522  -5.0522   0.8128  13.5615  18.7079

     occupation numbers 
     1.0000   1.0000   1.0000   1.0000   1.0000   1.0000  -0.0374   0.0000

          k =-0.2778 0.2778-0.2778 (  1934 PWs)   bands (ev):

    -5.2526  -5.1986  -5.1986  -5.0209  -5.0209   1.3662  11.8651  18.3898

     occupation numbers 
     1.0000   1.0000   1.0000   1.0000   1.0000   1.0000   0.5413   0.0000

          k =-0.3333 0.3333-0.3333 (  1940 PWs)   bands (ev):

    -5.2609  -5.2070  -5.2070  -4.9855  -4.9855   2.0215  10.3052  18.1126

     occupation numbers 
     1.0000   1.0000   1.0000   1.0000   1.0000   1.0000   1.0364   0.0000

          k =-0.3889 0.3889-0.3889 (  1937 PWs)   bands (ev):

    -5.2687  -5.2158  -5.2158  -4.9542  -4.9542   2.7366   8.9373  17.8981

     occupation numbers 
[...]

          k =-0.1111 0.5556 0.0000 (  1947 PWs)   bands (ev):

    -5.3359  -5.2079  -5.0629  -5.0383  -4.9810   1.9579  13.1570  15.1621

     occupation numbers 
     1.0000   1.0000   1.0000   1.0000   1.0000   1.0000  -0.0641   0.0000

          k =-0.1667 0.6111-0.0556 (  1942 PWs)   bands (ev):

    -5.3347  -5.2208  -5.0636  -5.0150  -4.9558   2.4917  12.0529  14.4660

     occupation numbers 
     1.0000   1.0000   1.0000   1.0000   1.0000   1.0000   0.4944   0.0000

          k =-0.2222 0.6667-0.1111 (  1939 PWs)   bands (ev):

    -5.3251  -5.2229  -5.0701  -5.0063  -4.9333   3.1096  10.8875  13.8085

     occupation numbers 
     1.0000   1.0000   1.0000   1.0000   1.0000   1.0000   1.0259  -0.0000

          k = 0.7222-0.2778 0.8333 (  1934 PWs)   bands (ev):

    -5.3126  -5.2108  -5.0779  -5.0112  -4.9209   3.7582   9.8193  13.1810

     occupation numbers 
     1.0000   1.0000   1.0000   1.0000   1.0000   1.0000   1.0000  -0.0161

          k = 0.6667-0.2222 0.7778 (  1935 PWs)   bands (ev):

    -5.3000  -5.1873  -5.0831  -5.0269  -4.9222   4.3116   9.0233  12.6363

     occupation numbers 
     1.0000   1.0000   1.0000   1.0000   1.0000   1.0000   1.0000  -0.0260

          k = 0.6111-0.1667 0.7222 (  1937 PWs)   bands (ev):

    -5.2862  -5.1645  -5.0810  -5.0479  -4.9377   4.5303   8.7576  12.2143

     occupation numbers 
     1.0000   1.0000   1.0000   1.0000   1.0000   1.0000   1.0000   0.2209

          k = 0.5556-0.1111 0.6667 (  1940 PWs)   bands (ev):

    -5.2698  -5.1581  -5.0825  -5.0512  -4.9652   4.2665   9.1640  11.9504

     occupation numbers 
     1.0000   1.0000   1.0000   1.0000   1.0000   1.0000   1.0000   0.4539

          k = 0.5000-0.0556 0.6111 (  1938 PWs)   bands (ev):

    -5.2513  -5.1721  -5.0963  -5.0283  -4.9987   3.7063   9.9973  11.9168

     occupation numbers 
     1.0000   1.0000   1.0000   1.0000   1.0000   1.0000   1.0000   0.3829

          k = 0.4444 0.0000 0.5556 (  1944 PWs)   bands (ev):

    -5.2323  -5.1982  -5.1054  -5.0413  -4.9977   3.0706  10.8009  12.3516

     occupation numbers 
     1.0000   1.0000   1.0000   1.0000   1.0000   1.0000   1.0087   0.0177

          k =-0.1111 0.6667-0.0000 (  1949 PWs)   bands (ev):

    -5.3651  -5.2493  -5.0164  -4.9795  -4.9525   2.8306  11.7808  14.4981

     occupation numbers 
     1.0000   1.0000   1.0000   1.0000   1.0000   1.0000   0.7476   0.0000

          k =-0.1667 0.7222-0.0556 (  1945 PWs)   bands (ev):

    -5.3598  -5.2570  -5.0215  -4.9645  -4.9316   3.4061  10.9051  13.6613

     occupation numbers 
     1.0000   1.0000   1.0000   1.0000   1.0000   1.0000   1.0186   0.0000

          k = 0.7778-0.2222 0.8889 (  1941 PWs)   bands (ev):

    -5.3455  -5.2498  -5.0303  -4.9706  -4.9167   4.0190  10.0893  12.7298

     occupation numbers 
     1.0000   1.0000   1.0000   1.0000   1.0000   1.0000   1.0002  -0.0250

          k = 0.7222-0.1667 0.8333 (  1941 PWs)   bands (ev):

    -5.3286  -5.2237  -5.0408  -4.9918  -4.9155   4.5645   9.4687  11.8986

     occupation numbers 
     1.0000   1.0000   1.0000   1.0000   1.0000   1.0000   1.0000   0.4461

          k = 0.6667-0.1111 0.7778 (  1931 PWs)   bands (ev):

    -5.3114  -5.1819  -5.0539  -5.0221  -4.9287   4.8502   9.2488  11.2330

     occupation numbers 
     1.0000   1.0000   1.0000   1.0000   1.0000   1.0000   1.0000   1.0108

          k = 0.6111-0.0556 0.7222 (  1931 PWs)   bands (ev):

    -5.2927  -5.1342  -5.0804  -5.0450  -4.9536   4.7213   9.5613  10.7893

     occupation numbers 
     1.0000   1.0000   1.0000   1.0000   1.0000   1.0000   1.0000   1.0348

          k = 0.5556 0.0000 0.6667 (  1928 PWs)   bands (ev):

    -5.2723  -5.1287  -5.0914  -5.0473  -4.9830   4.2759   9.9928  10.8980

     occupation numbers 
     1.0000   1.0000   1.0000   1.0000   1.0000   1.0000   1.0000   1.0721

          k =-0.1111 0.7778 0.0000 (  1947 PWs)   bands (ev):

    -5.3889  -5.2849  -4.9782  -4.9306  -4.9281   3.8009  10.3680  14.0071

     occupation numbers 
     1.0000   1.0000   1.0000   1.0000   1.0000   1.0000   1.0079   0.0000

          k = 0.8333-0.1667 0.9444 (  1948 PWs)   bands (ev):

    -5.3785  -5.2854  -4.9848  -4.9342  -4.9099   4.3605   9.7292  13.0659

     occupation numbers 
     1.0000   1.0000   1.0000   1.0000   1.0000   1.0000   1.0000  -0.0211

          k = 0.7778-0.1111 0.8889 (  1942 PWs)   bands (ev):

    -5.3591  -5.2685  -4.9946  -4.9558  -4.9050   4.8531   9.3247  12.0157

     occupation numbers 
     1.0000   1.0000   1.0000   1.0000   1.0000   1.0000   1.0000   0.2867

          k = 0.7222-0.0556 0.8333 (  1932 PWs)   bands (ev):

    -5.3374  -5.2315  -5.0089  -4.9900  -4.9146   5.1176   9.3160  11.0595

     occupation numbers 
     1.0000   1.0000   1.0000   1.0000   1.0000   1.0000   1.0000   1.0469

          k = 0.6667 0.0000 0.7778 (  1925 PWs)   bands (ev):

    -5.3155  -5.1802  -5.0422  -5.0187  -4.9338   5.0488   9.7477  10.3151

     occupation numbers 
     1.0000   1.0000   1.0000   1.0000   1.0000   1.0000   1.0000   1.0013

          k = 0.8889-0.1111 1.0000 (  1948 PWs)   bands (ev):

    -5.4043  -5.3089  -4.9538  -4.9112  -4.8980   4.7436   9.1228  13.7058

     occupation numbers 
     1.0000   1.0000   1.0000   1.0000   1.0000   1.0000   1.0000  -0.0010

          k = 0.8333-0.0556 0.9444 (  1945 PWs)   bands (ev):

    -5.3885  -5.3009  -4.9605  -4.9277  -4.8926   5.1159   8.8332  12.7699

     occupation numbers 
     1.0000   1.0000   1.0000   1.0000   1.0000   1.0000   1.0000  -0.0363

          k = 0.7778 0.0000 0.8889 (  1935 PWs)   bands (ev):

    -5.3638  -5.2751  -4.9740  -4.9598  -4.8997   5.2442   8.9459  11.7813

     occupation numbers 
     1.0000   1.0000   1.0000   1.0000   1.0000   1.0000   1.0000   0.6650

          k =-0.1111-1.0000 0.0000 (  1948 PWs)   bands (ev):

    -5.4096  -5.3173  -4.9456  -4.9049  -4.8867   5.2271   8.5326  13.6042

     occupation numbers 
     1.0000   1.0000   1.0000   1.0000   1.0000   1.0000   1.0000  -0.0099

          k =-0.2222 0.4444 0.0000 (  1943 PWs)   bands (ev):

    -5.2774  -5.1779  -5.1204  -5.1022  -4.9968   1.4683  13.3628  15.0474

     occupation numbers 
     1.0000   1.0000   1.0000   1.0000   1.0000   1.0000  -0.0543   0.0000

          k =-0.2778 0.5000-0.0556 (  1944 PWs)   bands (ev):

    -5.2701  -5.1913  -5.1233  -5.0715  -4.9777   2.0090  12.1384  14.3957

     occupation numbers 
     1.0000   1.0000   1.0000   1.0000   1.0000   1.0000   0.3748   0.0000

          k =-0.3333 0.5556-0.1111 (  1942 PWs)   bands (ev):

    -5.2602  -5.2043  -5.1260  -5.0448  -4.9608   2.6411  10.7914  14.0914

     occupation numbers 
     1.0000   1.0000   1.0000   1.0000   1.0000   1.0000   1.0347  -0.0000

          k = 0.6111-0.3889 0.8333 (  1940 PWs)   bands (ev):

    -5.2510  -5.2156  -5.1255  -5.0267  -4.9467   3.3176   9.5544  13.9555

     occupation numbers 
     1.0000   1.0000   1.0000   1.0000   1.0000   1.0000   1.0000  -0.0019

          k = 0.5556-0.3333 0.7778 (  1939 PWs)   bands (ev):

    -5.2440  -5.2251  -5.1228  -5.0170  -4.9370   3.9203   8.6034  13.9118

     occupation numbers 
     1.0000   1.0000   1.0000   1.0000   1.0000   1.0000   1.0000  -0.0051

          k = 0.5000-0.2778 0.7222 (  1934 PWs)   bands (ev):

    -5.2398  -5.2304  -5.1212  -5.0141  -4.9334   4.1897   8.2164  13.9058

     occupation numbers 
     1.0000   1.0000   1.0000   1.0000   1.0000   1.0000   1.0000  -0.0066

          k =-0.2222 0.5556 0.0000 (  1944 PWs)   bands (ev):

    -5.3036  -5.1993  -5.1014  -5.0409  -4.9699   2.1916  12.3502  14.2550

     occupation numbers 
     1.0000   1.0000   1.0000   1.0000   1.0000   1.0000   0.2040   0.0000

          k =-0.2778 0.6111-0.0556 (  1937 PWs)   bands (ev):

    -5.2924  -5.2084  -5.1045  -5.0178  -4.9569   2.7851  11.2982  13.6178

     occupation numbers 
     1.0000   1.0000   1.0000   1.0000   1.0000   1.0000   0.9950  -0.0008

          k = 0.6667-0.3333 0.8889 (  1938 PWs)   bands (ev):

    -5.2785  -5.2095  -5.1063  -5.0135  -4.9430   3.4350  10.1714  13.2616

     occupation numbers 
     1.0000   1.0000   1.0000   1.0000   1.0000   1.0000   1.0009  -0.0154

          k = 0.6111-0.2778 0.8333 (  1939 PWs)   bands (ev):

    -5.2672  -5.2044  -5.1005  -5.0264  -4.9324   4.0511   9.2112  13.0122

     occupation numbers 
     1.0000   1.0000   1.0000   1.0000   1.0000   1.0000   1.0000  -0.0487

          k = 0.5556-0.2222 0.7778 (  1940 PWs)   bands (ev):

    -5.2577  -5.2013  -5.0847  -5.0471  -4.9312   4.4319   8.6757  12.8000

     occupation numbers 
     1.0000   1.0000   1.0000   1.0000   1.0000   1.0000   1.0000  -0.0416

          k = 0.5000-0.1667 0.7222 (  1942 PWs)   bands (ev):

    -5.2474  -5.2047  -5.0840  -5.0483  -4.9410   4.3374   8.8202  12.6390

     occupation numbers 
     1.0000   1.0000   1.0000   1.0000   1.0000   1.0000   1.0000  -0.0085

          k = 0.4444-0.1111 0.6667 (  1935 PWs)   bands (ev):

    -5.2356  -5.2147  -5.1033  -5.0270  -4.9596   3.8414   9.5589  12.5847

     occupation numbers 
     1.0000   1.0000   1.0000   1.0000   1.0000   1.0000   1.0000   0.0056

          k = 0.3889-0.0556 0.6111 (  1940 PWs)   bands (ev):

    -5.2355  -5.2187  -5.1152  -5.0206  -4.9754   3.2016  10.5735  12.7274

     occupation numbers 
     1.0000   1.0000   1.0000   1.0000   1.0000   1.0000   1.0068  -0.0198

          k = 0.3333 0.0000 0.5556 (  1941 PWs)   bands (ev):

    -5.2547  -5.2051  -5.1190  -5.0434  -4.9755   2.5693  11.5176  13.2716

     occupation numbers 
     1.0000   1.0000   1.0000   1.0000   1.0000   1.0000   0.9615  -0.0036

          k =-0.2222 0.6667 0.0000 (  1942 PWs)   bands (ev):

    -5.3287  -5.2324  -5.0660  -4.9813  -4.9501   3.0427  11.3420  13.6110

     occupation numbers 
     1.0000   1.0000   1.0000   1.0000   1.0000   1.0000   0.9938   0.0000

          k = 0.7222-0.2778 0.9444 (  1939 PWs)   bands (ev):

    -5.3129  -5.2335  -5.0731  -4.9729  -4.9397   3.6555  10.5231  12.9185

     occupation numbers 
     1.0000   1.0000   1.0000   1.0000   1.0000   1.0000   1.0031  -0.0180

          k = 0.6667-0.2222 0.8889 (  1934 PWs)   bands (ev):

    -5.2954  -5.2189  -5.0809  -4.9931  -4.9250   4.2560   9.7384  12.3327

     occupation numbers 
     1.0000   1.0000   1.0000   1.0000   1.0000   1.0000   1.0000   0.0475

          k = 0.6111-0.1667 0.8333 (  1932 PWs)   bands (ev):

    -5.2812  -5.1913  -5.0865  -5.0234  -4.9220   4.6873   9.2229  11.8433

     occupation numbers 
     1.0000   1.0000   1.0000   1.0000   1.0000   1.0000   1.0000   0.6155

          k = 0.5556-0.1111 0.7778 (  1933 PWs)   bands (ev):

    -5.2675  -5.1685  -5.0909  -5.0464  -4.9327   4.7333   9.2271  11.4895

     occupation numbers 
     1.0000   1.0000   1.0000   1.0000   1.0000   1.0000   1.0000   0.9019

          k = 0.5000-0.0556 0.7222 (  1938 PWs)   bands (ev):

    -5.2523  -5.1730  -5.1033  -5.0338  -4.9554   4.3719   9.7333  11.3567

     occupation numbers 
     1.0000   1.0000   1.0000   1.0000   1.0000   1.0000   1.0000   0.9557

          k = 0.4444 0.0000 0.6667 (  1942 PWs)   bands (ev):

    -5.2358  -5.2021  -5.1106  -5.0046  -4.9852   3.8059  10.2979  11.7075

     occupation numbers 
     1.0000   1.0000   1.0000   1.0000   1.0000   1.0000   1.0000   0.5970

          k = 0.7778-0.2222 1.0000 (  1942 PWs)   bands (ev):

    -5.3492  -5.2632  -5.0269  -4.9409  -4.9314   3.9713  10.2908  13.1359

     occupation numbers 
     1.0000   1.0000   1.0000   1.0000   1.0000   1.0000   1.0005  -0.0111

          k = 0.7222-0.1667 0.9444 (  1944 PWs)   bands (ev):

    -5.3284  -5.2555  -5.0370  -4.9623  -4.9127   4.5294   9.7737  12.2983

     occupation numbers 
     1.0000   1.0000   1.0000   1.0000   1.0000   1.0000   1.0000   0.0603

          k = 0.6667-0.1111 0.8889 (  1937 PWs)   bands (ev):

    -5.3073  -5.2277  -5.0522  -4.9941  -4.9073   4.9487   9.5055  11.4245

     occupation numbers 
     1.0000   1.0000   1.0000   1.0000   1.0000   1.0000   1.0000   0.9870

          k = 0.6111-0.0556 0.8333 (  1931 PWs)   bands (ev):

    -5.2891  -5.1831  -5.0801  -5.0220  -4.9159   5.0602   9.6608  10.6976

     occupation numbers 
     1.0000   1.0000   1.0000   1.0000   1.0000   1.0000   1.0000   1.0169

          k = 0.5556 0.0000 0.7778 (  1930 PWs)   bands (ev):

    -5.2710  -5.1360  -5.1236  -5.0348  -4.9350   4.8243  10.0328  10.4164

     occupation numbers 
     1.0000   1.0000   1.0000   1.0000   1.0000   1.0000   1.0000   1.0143

          k = 0.7778-0.1111 1.0000 (  1942 PWs)   bands (ev):

    -5.3627  -5.2844  -4.9908  -4.9444  -4.8983   4.8405   9.3102  12.8446

     occupation numbers 
     1.0000   1.0000   1.0000   1.0000   1.0000   1.0000   1.0000  -0.0884

          k = 0.7222-0.0556 0.9444 (  1933 PWs)   bands (ev):

    -5.3369  -5.2678  -5.0033  -4.9753  -4.8928   5.1723   9.1903  11.9210

     occupation numbers 
     1.0000   1.0000   1.0000   1.0000   1.0000   1.0000   1.0000   0.5930

          k = 0.6667-0.0000 0.8889 (  1931 PWs)   bands (ev):

    -5.3115  -5.2311  -5.0347  -5.0027  -4.8998   5.2401   9.4469  11.0172

     occupation numbers 
     1.0000   1.0000   1.0000   1.0000   1.0000   1.0000   1.0000   1.0338

          k =-0.2222-1.0000 0.0000 (  1942 PWs)   bands (ev):

    -5.3674  -5.2919  -4.9672  -4.9564  -4.8867   5.2604   8.8427  12.7464

     occupation numbers 
     1.0000   1.0000   1.0000   1.0000   1.0000   1.0000   1.0000  -0.0935

          k = 0.6667-0.3333 1.0000 (  1930 PWs)   bands (ev):

    -5.2721  -5.2187  -5.1073  -4.9835  -4.9684   3.3780  10.7901  12.6319

     occupation numbers 
     1.0000   1.0000   1.0000   1.0000   1.0000   1.0000   1.0090  -0.0124

          k = 0.6111-0.2778 0.9444 (  1938 PWs)   bands (ev):

    -5.2499  -5.2208  -5.1090  -4.9961  -4.9509   3.9938  10.0821  12.1085

     occupation numbers 
     1.0000   1.0000   1.0000   1.0000   1.0000   1.0000   1.0000   0.1801

          k = 0.5556-0.2222 0.8889 (  1930 PWs)   bands (ev):

    -5.2434  -5.2067  -5.1028  -5.0271  -4.9312   4.5172   9.4004  11.9219

     occupation numbers 
     1.0000   1.0000   1.0000   1.0000   1.0000   1.0000   1.0000   0.5447

          k = 0.5000-0.1667 0.8333 (  1930 PWs)   bands (ev):

    -5.2435  -5.1981  -5.0933  -5.0467  -4.9243   4.7394   9.1106  11.8813

     occupation numbers 
     1.0000   1.0000   1.0000   1.0000   1.0000   1.0000   1.0000   0.6467

          k = 0.6667-0.2222 1.0000 (  1936 PWs)   bands (ev):

    -5.2873  -5.2374  -5.0819  -4.9717  -4.9327   4.2291  10.1481  12.1606

     occupation numbers 
     1.0000   1.0000   1.0000   1.0000   1.0000   1.0000   1.0000   0.1401

          k = 0.6111-0.1667 0.9444 (  1929 PWs)   bands (ev):

    -5.2622  -5.2249  -5.0951  -5.0005  -4.9145   4.7359   9.7908  11.5717

     occupation numbers 
     1.0000   1.0000   1.0000   1.0000   1.0000   1.0000   1.0000   0.9263

          k = 0.5556-0.1111 0.8889 (  1931 PWs)   bands (ev):

    -5.2515  -5.1914  -5.1154  -5.0256  -4.9082   5.0148   9.6243  11.1460

     occupation numbers 
     1.0000   1.0000   1.0000   1.0000   1.0000   1.0000   1.0000   1.0207

          k = 0.5000-0.0556 0.8333 (  1931 PWs)   bands (ev):

    -5.2433  -5.1763  -5.1308  -5.0296  -4.9156   4.9283   9.7886  10.9417

     occupation numbers 
     1.0000   1.0000   1.0000   1.0000   1.0000   1.0000   1.0000   1.0276

          k = 0.4444 0.0000 0.7778 (  1936 PWs)   bands (ev):

    -5.2341  -5.2092  -5.1183  -5.0119  -4.9341   4.5326  10.0159  11.2327

     occupation numbers 
     1.0000   1.0000   1.0000   1.0000   1.0000   1.0000   1.0000   1.0352

          k = 0.6667-0.1111 1.0000 (  1936 PWs)   bands (ev):

    -5.2974  -5.2524  -5.0519  -4.9847  -4.8987   4.9728   9.5994  11.8718

     occupation numbers 
     1.0000   1.0000   1.0000   1.0000   1.0000   1.0000   1.0000   0.7112

          k = 0.6111-0.0556 0.9444 (  1928 PWs)   bands (ev):

    -5.2693  -5.2285  -5.0804  -5.0105  -4.8928   5.2239   9.6938  11.1439

     occupation numbers 
     1.0000   1.0000   1.0000   1.0000   1.0000   1.0000   1.0000   1.0216

          k = 0.5556 0.0000 0.8889 (  1925 PWs)   bands (ev):

    -5.2546  -5.1824  -5.1236  -5.0250  -4.8995   5.1971  10.1209  10.4246

     occupation numbers 
     1.0000   1.0000   1.0000   1.0000   1.0000   1.0000   1.0000   1.0000

          k =-0.3333-1.0000 0.0000 (  1940 PWs)   bands (ev):

    -5.3010  -5.2580  -5.0332  -4.9971  -4.8867   5.2998   9.3454  11.7745

     occupation numbers 
     1.0000   1.0000   1.0000   1.0000   1.0000   1.0000   1.0000   0.8988

          k = 0.5556-0.1111 1.0000 (  1934 PWs)   bands (ev):

    -5.2316  -5.2148  -5.1229  -5.0187  -4.8991   5.1032   9.9681  10.9417

     occupation numbers 
     1.0000   1.0000   1.0000   1.0000   1.0000   1.0000   1.0000   1.0167

          k = 0.5000-0.0556 0.9444 (  1926 PWs)   bands (ev):

    -5.2316  -5.1744  -5.1584  -5.0263  -4.8928   5.2448  10.1516  10.6003

     occupation numbers 
     1.0000   1.0000   1.0000   1.0000   1.0000   1.0000   1.0000   1.0000

          k =-0.4444-1.0000 0.0000 (  1926 PWs)   bands (ev):

    -5.2306  -5.2169  -5.1240  -5.0217  -4.8866   5.3265  10.0213  10.8437

     occupation numbers 
     1.0000   1.0000   1.0000   1.0000   1.0000   1.0000   1.0000   1.0000

     the Fermi energy is    11.9397 ev
     (compare with:    11.9459 eV, computed in scf)

     Writing output data file /home/elena/AEP_DFT/DFT/tmp/bands/Pb.save/

     init_run     :      0.65s CPU      0.69s WALL (       1 calls)
     electrons    :     40.46s CPU     40.87s WALL (       1 calls)

     Called by init_run:
     wfcinit      :      0.00s CPU      0.00s WALL (       1 calls)
     wfcinit:atom :      0.07s CPU      0.07s WALL (     195 calls)
     wfcinit:wfcr :      1.97s CPU      1.99s WALL (     195 calls)
     potinit      :      0.06s CPU      0.07s WALL (       1 calls)
     hinit0       :      0.45s CPU      0.46s WALL (       1 calls)

     Called by electrons:
     c_bands      :     40.20s CPU     40.61s WALL (       1 calls)
     v_of_rho     :      0.05s CPU      0.06s WALL (       1 calls)
     v_h          :      0.00s CPU      0.00s WALL (       1 calls)
     v_xc         :      0.05s CPU      0.05s WALL (       1 calls)
     newd         :      0.08s CPU      0.11s WALL (       1 calls)

     Called by c_bands:
     init_us_2    :      0.09s CPU      0.09s WALL (     195 calls)
     cegterg      :     37.70s CPU     38.07s WALL (     377 calls)

     Called by sum_band:

     Called by *egterg:
     cdiaghg      :      0.44s CPU      0.45s WALL (    5566 calls)
     cegterg:over :      2.02s CPU      2.04s WALL (    5371 calls)
     cegterg:upda :      1.15s CPU      1.16s WALL (    5371 calls)
     cegterg:last :      2.88s CPU      2.90s WALL (    3375 calls)
     h_psi        :     31.19s CPU     31.51s WALL (    5943 calls)
     s_psi        :      1.23s CPU      1.25s WALL (    5943 calls)
     g_psi        :      0.18s CPU      0.19s WALL (    5371 calls)

     Called by h_psi:
     h_psi:calbec :      1.56s CPU      1.57s WALL (    5943 calls)
     vloc_psi     :     28.25s CPU     28.54s WALL (    5943 calls)
     add_vuspsi   :      1.26s CPU      1.28s WALL (    5943 calls)

     General routines
     calbec       :      1.54s CPU      1.56s WALL (    5943 calls)
     fft          :      0.03s CPU      0.03s WALL (      13 calls)
     ffts         :      0.00s CPU      0.00s WALL (       1 calls)
     fftw         :     25.29s CPU     25.57s WALL (   60552 calls)
     interpolate  :      0.01s CPU      0.01s WALL (       1 calls)
     davcio       :      0.02s CPU      0.02s WALL (     390 calls)


     PWSCF        :     42.22s CPU     42.72s WALL


   This run was terminated on:  22:38:24   1Jul2021            

=------------------------------------------------------------------------------=
   JOB DONE.
=------------------------------------------------------------------------------=
