
     Program PWSCF v.6.7MaX starts on  1Jul2021 at 22:35:34 

     This program is part of the open-source Quantum ESPRESSO suite
     for quantum simulation of materials; please cite
         "P. Giannozzi et al., J. Phys.:Condens. Matter 21 395502 (2009);
         "P. Giannozzi et al., J. Phys.:Condens. Matter 29 465901 (2017);
          URL http://www.quantum-espresso.org", 
     in publications or presentations arising from this work. More details at
     http://www.quantum-espresso.org/quote

     Serial version
     Waiting for input...
     Reading input from standard input

     Current dimensions of program PWSCF are:
     Max number of different atomic species (ntypx) = 10
     Max number of k-points (npk) =  40000
     Max angular momentum in pseudopotentials (lmaxx) =  3

     Atomic positions and unit cell read from directory:
     /home/elena/AEP_DFT/DFT/tmp/bands/Pb.save/

     file Pb.pbe-dn-rrkjus_psl.1.0.0.UPF: wavefunction(s)  6S 5D renormalized

     G-vector sticks info
     --------------------
     sticks:   dense  smooth     PW     G-vecs:    dense   smooth      PW
     Sum        1639     823    253                43895    15593    2685



     bravais-lattice index     =            2
     lattice parameter (alat)  =       9.2226  a.u.
     unit-cell volume          =     196.1075 (a.u.)^3
     number of atoms/cell      =            1
     number of atomic types    =            1
     number of electrons       =        14.00
     number of Kohn-Sham states=            8
     kinetic-energy cutoff     =      70.0000  Ry
     charge density cutoff     =     560.0000  Ry
     Exchange-correlation= PBE
                           (   1   4   3   4   0   0   0)

     celldm(1)=   9.222558  celldm(2)=   0.000000  celldm(3)=   0.000000
     celldm(4)=   0.000000  celldm(5)=   0.000000  celldm(6)=   0.000000

     crystal axes: (cart. coord. in units of alat)
               a(1) = (  -0.500000   0.000000   0.500000 )  
               a(2) = (   0.000000   0.500000   0.500000 )  
               a(3) = (  -0.500000   0.500000   0.000000 )  

     reciprocal axes: (cart. coord. in units 2 pi/alat)
               b(1) = ( -1.000000 -1.000000  1.000000 )  
               b(2) = (  1.000000  1.000000  1.000000 )  
               b(3) = ( -1.000000  1.000000 -1.000000 )  


     PseudoPot. # 1 for Pb read from file:
     /home/elena/qe-6.7/pseudo/Pb.pbe-dn-rrkjus_psl.1.0.0.UPF
     MD5 check sum: 1cf8f5e18580e6a90a35f98a53d336de
     Pseudo is Ultrasoft + core correction, Zval = 14.0
     Generated using &quot;atomic&quot; code by A. Dal Corso  v.6.3
     Using radial grid of 1281 points,  6 beta functions with: 
                l(1) =   0
                l(2) =   0
                l(3) =   1
                l(4) =   1
                l(5) =   2
                l(6) =   2
     Q(r) pseudized with 0 coefficients 


     atomic species   valence    mass     pseudopotential
        Pb            14.00   207.20000     Pb( 1.00)

     48 Sym. Ops., with inversion, found


                                    s                        frac. trans.

      isym =  1     identity                                     

 cryst.   s( 1) = (     1          0          0      )
                  (     0          1          0      )
                  (     0          0          1      )

 cart.    s( 1) = (  1.0000000  0.0000000  0.0000000 )
                  (  0.0000000  1.0000000  0.0000000 )
                  (  0.0000000  0.0000000  1.0000000 )


      isym =  2     180 deg rotation - cart. axis [0,0,1]        

 cryst.   s( 2) = (     0          1         -1      )
                  (     1          0         -1      )
                  (     0          0         -1      )

 cart.    s( 2) = ( -1.0000000  0.0000000  0.0000000 )
                  (  0.0000000 -1.0000000  0.0000000 )
                  (  0.0000000  0.0000000  1.0000000 )


      isym =  3     180 deg rotation - cart. axis [0,1,0]        

 cryst.   s( 3) = (    -1          0          0      )
                  (    -1          0          1      )
                  (    -1          1          0      )

 cart.    s( 3) = ( -1.0000000  0.0000000  0.0000000 )
                  (  0.0000000  1.0000000  0.0000000 )
                  (  0.0000000  0.0000000 -1.0000000 )


      isym =  4     180 deg rotation - cart. axis [1,0,0]        

 cryst.   s( 4) = (     0         -1          1      )
                  (     0         -1          0      )
                  (     1         -1          0      )

 cart.    s( 4) = (  1.0000000  0.0000000  0.0000000 )
                  (  0.0000000 -1.0000000  0.0000000 )
                  (  0.0000000  0.0000000 -1.0000000 )


      isym =  5     180 deg rotation - cart. axis [1,1,0]        

 cryst.   s( 5) = (     0         -1          0      )
                  (    -1          0          0      )
                  (     0          0         -1      )

 cart.    s( 5) = (  0.0000000  1.0000000  0.0000000 )
                  (  1.0000000  0.0000000  0.0000000 )
                  (  0.0000000  0.0000000 -1.0000000 )


      isym =  6     180 deg rotation - cart. axis [1,-1,0]       

 cryst.   s( 6) = (    -1          0          1      )
                  (     0         -1          1      )
                  (     0          0          1      )

 cart.    s( 6) = (  0.0000000 -1.0000000  0.0000000 )
                  ( -1.0000000  0.0000000  0.0000000 )
                  (  0.0000000  0.0000000 -1.0000000 )


      isym =  7      90 deg rotation - cart. axis [0,0,-1]       

 cryst.   s( 7) = (     0          1          0      )
                  (     0          1         -1      )
                  (    -1          1          0      )

 cart.    s( 7) = (  0.0000000  1.0000000  0.0000000 )
                  ( -1.0000000  0.0000000  0.0000000 )
                  (  0.0000000  0.0000000  1.0000000 )


      isym =  8      90 deg rotation - cart. axis [0,0,1]        

 cryst.   s( 8) = (     1          0         -1      )
                  (     1          0          0      )
                  (     1         -1          0      )

 cart.    s( 8) = (  0.0000000 -1.0000000  0.0000000 )
                  (  1.0000000  0.0000000  0.0000000 )
                  (  0.0000000  0.0000000  1.0000000 )


      isym =  9     180 deg rotation - cart. axis [1,0,1]        

 cryst.   s( 9) = (    -1          0          0      )
                  (     0          0         -1      )
                  (     0         -1          0      )

 cart.    s( 9) = (  0.0000000  0.0000000  1.0000000 )
                  (  0.0000000 -1.0000000  0.0000000 )
                  (  1.0000000  0.0000000  0.0000000 )


      isym = 10     180 deg rotation - cart. axis [-1,0,1]       

 cryst.   s(10) = (     1          0          0      )
                  (     1         -1          0      )
                  (     1          0         -1      )

 cart.    s(10) = (  0.0000000  0.0000000 -1.0000000 )
                  (  0.0000000 -1.0000000  0.0000000 )
                  ( -1.0000000  0.0000000  0.0000000 )


      isym = 11      90 deg rotation - cart. axis [0,1,0]        

 cryst.   s(11) = (     0          1         -1      )
                  (    -1          1          0      )
                  (     0          1          0      )

 cart.    s(11) = (  0.0000000  0.0000000  1.0000000 )
                  (  0.0000000  1.0000000  0.0000000 )
                  ( -1.0000000  0.0000000  0.0000000 )


      isym = 12      90 deg rotation - cart. axis [0,-1,0]       

 cryst.   s(12) = (     0         -1          1      )
                  (     0          0          1      )
                  (    -1          0          1      )

 cart.    s(12) = (  0.0000000  0.0000000 -1.0000000 )
                  (  0.0000000  1.0000000  0.0000000 )
                  (  1.0000000  0.0000000  0.0000000 )


      isym = 13     180 deg rotation - cart. axis [0,1,1]        

 cryst.   s(13) = (    -1          1          0      )
                  (     0          1          0      )
                  (     0          1         -1      )

 cart.    s(13) = ( -1.0000000  0.0000000  0.0000000 )
                  (  0.0000000  0.0000000  1.0000000 )
                  (  0.0000000  1.0000000  0.0000000 )


      isym = 14     180 deg rotation - cart. axis [0,1,-1]       

 cryst.   s(14) = (     0          0         -1      )
                  (     0         -1          0      )
                  (    -1          0          0      )

 cart.    s(14) = ( -1.0000000  0.0000000  0.0000000 )
                  (  0.0000000  0.0000000 -1.0000000 )
                  (  0.0000000 -1.0000000  0.0000000 )


      isym = 15      90 deg rotation - cart. axis [-1,0,0]       

 cryst.   s(15) = (     0          0          1      )
                  (    -1          0          1      )
                  (     0         -1          1      )

 cart.    s(15) = (  1.0000000  0.0000000  0.0000000 )
                  (  0.0000000  0.0000000  1.0000000 )
                  (  0.0000000 -1.0000000  0.0000000 )


      isym = 16      90 deg rotation - cart. axis [1,0,0]        

 cryst.   s(16) = (     1         -1          0      )
                  (     1          0         -1      )
                  (     1          0          0      )

 cart.    s(16) = (  1.0000000  0.0000000  0.0000000 )
                  (  0.0000000  0.0000000 -1.0000000 )
                  (  0.0000000  1.0000000  0.0000000 )


      isym = 17     120 deg rotation - cart. axis [-1,-1,-1]     

 cryst.   s(17) = (    -1          0          1      )
                  (    -1          1          0      )
                  (    -1          0          0      )

 cart.    s(17) = (  0.0000000  1.0000000  0.0000000 )
                  (  0.0000000  0.0000000  1.0000000 )
                  (  1.0000000  0.0000000  0.0000000 )


      isym = 18     120 deg rotation - cart. axis [-1,1,1]       

 cryst.   s(18) = (     0          1          0      )
                  (     0          0          1      )
                  (     1          0          0      )

 cart.    s(18) = (  0.0000000 -1.0000000  0.0000000 )
                  (  0.0000000  0.0000000  1.0000000 )
                  ( -1.0000000  0.0000000  0.0000000 )


      isym = 19     120 deg rotation - cart. axis [1,1,-1]       

 cryst.   s(19) = (     1          0         -1      )
                  (     0          0         -1      )
                  (     0          1         -1      )

 cart.    s(19) = (  0.0000000  1.0000000  0.0000000 )
                  (  0.0000000  0.0000000 -1.0000000 )
                  ( -1.0000000  0.0000000  0.0000000 )


      isym = 20     120 deg rotation - cart. axis [1,-1,1]       

 cryst.   s(20) = (     0         -1          0      )
                  (     1         -1          0      )
                  (     0         -1          1      )

 cart.    s(20) = (  0.0000000 -1.0000000  0.0000000 )
                  (  0.0000000  0.0000000 -1.0000000 )
                  (  1.0000000  0.0000000  0.0000000 )


      isym = 21     120 deg rotation - cart. axis [1,1,1]        

 cryst.   s(21) = (     0          0         -1      )
                  (     0          1         -1      )
                  (     1          0         -1      )

 cart.    s(21) = (  0.0000000  0.0000000  1.0000000 )
                  (  1.0000000  0.0000000  0.0000000 )
                  (  0.0000000  1.0000000  0.0000000 )


      isym = 22     120 deg rotation - cart. axis [-1,1,-1]      

 cryst.   s(22) = (    -1          1          0      )
                  (    -1          0          0      )
                  (    -1          0          1      )

 cart.    s(22) = (  0.0000000  0.0000000  1.0000000 )
                  ( -1.0000000  0.0000000  0.0000000 )
                  (  0.0000000 -1.0000000  0.0000000 )


      isym = 23     120 deg rotation - cart. axis [1,-1,-1]      

 cryst.   s(23) = (     0          0          1      )
                  (     1          0          0      )
                  (     0          1          0      )

 cart.    s(23) = (  0.0000000  0.0000000 -1.0000000 )
                  ( -1.0000000  0.0000000  0.0000000 )
                  (  0.0000000  1.0000000  0.0000000 )


      isym = 24     120 deg rotation - cart. axis [-1,-1,1]      

 cryst.   s(24) = (     1         -1          0      )
                  (     0         -1          1      )
                  (     0         -1          0      )

 cart.    s(24) = (  0.0000000  0.0000000 -1.0000000 )
                  (  1.0000000  0.0000000  0.0000000 )
                  (  0.0000000 -1.0000000  0.0000000 )


      isym = 25     inversion                                    

 cryst.   s(25) = (    -1          0          0      )
                  (     0         -1          0      )
                  (     0          0         -1      )

 cart.    s(25) = ( -1.0000000  0.0000000  0.0000000 )
                  (  0.0000000 -1.0000000  0.0000000 )
                  (  0.0000000  0.0000000 -1.0000000 )


      isym = 26     inv. 180 deg rotation - cart. axis [0,0,1]   

 cryst.   s(26) = (     0         -1          1      )
                  (    -1          0          1      )
                  (     0          0          1      )

 cart.    s(26) = (  1.0000000  0.0000000  0.0000000 )
                  (  0.0000000  1.0000000  0.0000000 )
                  (  0.0000000  0.0000000 -1.0000000 )


      isym = 27     inv. 180 deg rotation - cart. axis [0,1,0]   

 cryst.   s(27) = (     1          0          0      )
                  (     1          0         -1      )
                  (     1         -1          0      )

 cart.    s(27) = (  1.0000000  0.0000000  0.0000000 )
                  (  0.0000000 -1.0000000  0.0000000 )
                  (  0.0000000  0.0000000  1.0000000 )


      isym = 28     inv. 180 deg rotation - cart. axis [1,0,0]   

 cryst.   s(28) = (     0          1         -1      )
                  (     0          1          0      )
                  (    -1          1          0      )

 cart.    s(28) = ( -1.0000000  0.0000000  0.0000000 )
                  (  0.0000000  1.0000000  0.0000000 )
                  (  0.0000000  0.0000000  1.0000000 )


      isym = 29     inv. 180 deg rotation - cart. axis [1,1,0]   

 cryst.   s(29) = (     0          1          0      )
                  (     1          0          0      )
                  (     0          0          1      )

 cart.    s(29) = (  0.0000000 -1.0000000  0.0000000 )
                  ( -1.0000000  0.0000000  0.0000000 )
                  (  0.0000000  0.0000000  1.0000000 )


      isym = 30     inv. 180 deg rotation - cart. axis [1,-1,0]  

 cryst.   s(30) = (     1          0         -1      )
                  (     0          1         -1      )
                  (     0          0         -1      )

 cart.    s(30) = (  0.0000000  1.0000000  0.0000000 )
                  (  1.0000000  0.0000000  0.0000000 )
                  (  0.0000000  0.0000000  1.0000000 )


      isym = 31     inv.  90 deg rotation - cart. axis [0,0,-1]  

 cryst.   s(31) = (     0         -1          0      )
                  (     0         -1          1      )
                  (     1         -1          0      )

 cart.    s(31) = (  0.0000000 -1.0000000  0.0000000 )
                  (  1.0000000  0.0000000  0.0000000 )
                  (  0.0000000  0.0000000 -1.0000000 )


      isym = 32     inv.  90 deg rotation - cart. axis [0,0,1]   

 cryst.   s(32) = (    -1          0          1      )
                  (    -1          0          0      )
                  (    -1          1          0      )

 cart.    s(32) = (  0.0000000  1.0000000  0.0000000 )
                  ( -1.0000000  0.0000000  0.0000000 )
                  (  0.0000000  0.0000000 -1.0000000 )


      isym = 33     inv. 180 deg rotation - cart. axis [1,0,1]   

 cryst.   s(33) = (     1          0          0      )
                  (     0          0          1      )
                  (     0          1          0      )

 cart.    s(33) = (  0.0000000  0.0000000 -1.0000000 )
                  (  0.0000000  1.0000000  0.0000000 )
                  ( -1.0000000  0.0000000  0.0000000 )


      isym = 34     inv. 180 deg rotation - cart. axis [-1,0,1]  

 cryst.   s(34) = (    -1          0          0      )
                  (    -1          1          0      )
                  (    -1          0          1      )

 cart.    s(34) = (  0.0000000  0.0000000  1.0000000 )
                  (  0.0000000  1.0000000  0.0000000 )
                  (  1.0000000  0.0000000  0.0000000 )


      isym = 35     inv.  90 deg rotation - cart. axis [0,1,0]   

 cryst.   s(35) = (     0         -1          1      )
                  (     1         -1          0      )
                  (     0         -1          0      )

 cart.    s(35) = (  0.0000000  0.0000000 -1.0000000 )
                  (  0.0000000 -1.0000000  0.0000000 )
                  (  1.0000000  0.0000000  0.0000000 )


      isym = 36     inv.  90 deg rotation - cart. axis [0,-1,0]  

 cryst.   s(36) = (     0          1         -1      )
                  (     0          0         -1      )
                  (     1          0         -1      )

 cart.    s(36) = (  0.0000000  0.0000000  1.0000000 )
                  (  0.0000000 -1.0000000  0.0000000 )
                  ( -1.0000000  0.0000000  0.0000000 )


      isym = 37     inv. 180 deg rotation - cart. axis [0,1,1]   

 cryst.   s(37) = (     1         -1          0      )
                  (     0         -1          0      )
                  (     0         -1          1      )

 cart.    s(37) = (  1.0000000  0.0000000  0.0000000 )
                  (  0.0000000  0.0000000 -1.0000000 )
                  (  0.0000000 -1.0000000  0.0000000 )


      isym = 38     inv. 180 deg rotation - cart. axis [0,1,-1]  

 cryst.   s(38) = (     0          0          1      )
                  (     0          1          0      )
                  (     1          0          0      )

 cart.    s(38) = (  1.0000000  0.0000000  0.0000000 )
                  (  0.0000000  0.0000000  1.0000000 )
                  (  0.0000000  1.0000000  0.0000000 )


      isym = 39     inv.  90 deg rotation - cart. axis [-1,0,0]  

 cryst.   s(39) = (     0          0         -1      )
                  (     1          0         -1      )
                  (     0          1         -1      )

 cart.    s(39) = ( -1.0000000  0.0000000  0.0000000 )
                  (  0.0000000  0.0000000 -1.0000000 )
                  (  0.0000000  1.0000000  0.0000000 )


      isym = 40     inv.  90 deg rotation - cart. axis [1,0,0]   

 cryst.   s(40) = (    -1          1          0      )
                  (    -1          0          1      )
                  (    -1          0          0      )

 cart.    s(40) = ( -1.0000000  0.0000000  0.0000000 )
                  (  0.0000000  0.0000000  1.0000000 )
                  (  0.0000000 -1.0000000  0.0000000 )


      isym = 41     inv. 120 deg rotation - cart. axis [-1,-1,-1]

 cryst.   s(41) = (     1          0         -1      )
                  (     1         -1          0      )
                  (     1          0          0      )

 cart.    s(41) = (  0.0000000 -1.0000000  0.0000000 )
                  (  0.0000000  0.0000000 -1.0000000 )
                  ( -1.0000000  0.0000000  0.0000000 )


      isym = 42     inv. 120 deg rotation - cart. axis [-1,1,1]  

 cryst.   s(42) = (     0         -1          0      )
                  (     0          0         -1      )
                  (    -1          0          0      )

 cart.    s(42) = (  0.0000000  1.0000000  0.0000000 )
                  (  0.0000000  0.0000000 -1.0000000 )
                  (  1.0000000  0.0000000  0.0000000 )


      isym = 43     inv. 120 deg rotation - cart. axis [1,1,-1]  

 cryst.   s(43) = (    -1          0          1      )
                  (     0          0          1      )
                  (     0         -1          1      )

 cart.    s(43) = (  0.0000000 -1.0000000  0.0000000 )
                  (  0.0000000  0.0000000  1.0000000 )
                  (  1.0000000  0.0000000  0.0000000 )


      isym = 44     inv. 120 deg rotation - cart. axis [1,-1,1]  

 cryst.   s(44) = (     0          1          0      )
                  (    -1          1          0      )
                  (     0          1         -1      )

 cart.    s(44) = (  0.0000000  1.0000000  0.0000000 )
                  (  0.0000000  0.0000000  1.0000000 )
                  ( -1.0000000  0.0000000  0.0000000 )


      isym = 45     inv. 120 deg rotation - cart. axis [1,1,1]   

 cryst.   s(45) = (     0          0          1      )
                  (     0         -1          1      )
                  (    -1          0          1      )

 cart.    s(45) = (  0.0000000  0.0000000 -1.0000000 )
                  ( -1.0000000  0.0000000  0.0000000 )
                  (  0.0000000 -1.0000000  0.0000000 )


      isym = 46     inv. 120 deg rotation - cart. axis [-1,1,-1] 

 cryst.   s(46) = (     1         -1          0      )
                  (     1          0          0      )
                  (     1          0         -1      )

 cart.    s(46) = (  0.0000000  0.0000000 -1.0000000 )
                  (  1.0000000  0.0000000  0.0000000 )
                  (  0.0000000  1.0000000  0.0000000 )


      isym = 47     inv. 120 deg rotation - cart. axis [1,-1,-1] 

 cryst.   s(47) = (     0          0         -1      )
                  (    -1          0          0      )
                  (     0         -1          0      )

 cart.    s(47) = (  0.0000000  0.0000000  1.0000000 )
                  (  1.0000000  0.0000000  0.0000000 )
                  (  0.0000000 -1.0000000  0.0000000 )


      isym = 48     inv. 120 deg rotation - cart. axis [-1,-1,1] 

 cryst.   s(48) = (    -1          1          0      )
                  (     0          1         -1      )
                  (     0          1          0      )

 cart.    s(48) = (  0.0000000  0.0000000  1.0000000 )
                  ( -1.0000000  0.0000000  0.0000000 )
                  (  0.0000000  1.0000000  0.0000000 )


     point group O_h (m-3m) 
     there are 10 classes
     the character table:

       E     8C3   3C2   6C4   6C2'  i     8S6   3s_h  6S4   6s_d 
A_1g   1.00  1.00  1.00  1.00  1.00  1.00  1.00  1.00  1.00  1.00
A_2g   1.00  1.00  1.00 -1.00 -1.00  1.00  1.00  1.00 -1.00 -1.00
E_g    2.00 -1.00  2.00  0.00  0.00  2.00 -1.00  2.00  0.00  0.00
T_1g   3.00  0.00 -1.00  1.00 -1.00  3.00  0.00 -1.00  1.00 -1.00
T_2g   3.00  0.00 -1.00 -1.00  1.00  3.00  0.00 -1.00 -1.00  1.00
A_1u   1.00  1.00  1.00  1.00  1.00 -1.00 -1.00 -1.00 -1.00 -1.00
A_2u   1.00  1.00  1.00 -1.00 -1.00 -1.00 -1.00 -1.00  1.00  1.00
E_u    2.00 -1.00  2.00  0.00  0.00 -2.00  1.00 -2.00  0.00  0.00
T_1u   3.00  0.00 -1.00  1.00 -1.00 -3.00  0.00  1.00 -1.00  1.00
T_2u   3.00  0.00 -1.00 -1.00  1.00 -3.00  0.00  1.00  1.00 -1.00

     the symmetry operations in each class and the name of the first element:

     E        1
          identity                                               
     8C3     17   19   20   18   24   21   22   23
          120 deg rotation - cart. axis [-1,-1,-1]               
     3C2      2    4    3
          180 deg rotation - cart. axis [0,0,1]                  
     6C4      7    8   15   16   12   11
           90 deg rotation - cart. axis [0,0,-1]                 
     6C2'     5    6   14   13   10    9
          180 deg rotation - cart. axis [1,1,0]                  
     i       25
          inversion                                              
     8S6     41   43   44   42   48   45   46   47
          inv. 120 deg rotation - cart. axis [-1,-1,-1]          
     3s_h    26   28   27
          inv. 180 deg rotation - cart. axis [0,0,1]             
     6S4     31   32   39   40   36   35
          inv.  90 deg rotation - cart. axis [0,0,-1]            
     6s_d    29   30   38   37   34   33
          inv. 180 deg rotation - cart. axis [1,1,0]             

   Cartesian axes

     site n.     atom                  positions (alat units)
         1           Pb  tau(   1) = (   0.0000000   0.0000000   0.0000000  )

   Crystallographic axes

     site n.     atom                  positions (cryst. coord.)
         1           Pb  tau(   1) = (  0.0000000  0.0000000  0.0000000  )

     number of k points=    47 (tetrahedron method)
                       cart. coord. in units 2pi/alat
        k(    1) = (   0.0000000   0.0000000   0.0000000), wk =   0.0020000
        k(    2) = (  -0.1000000   0.1000000  -0.1000000), wk =   0.0160000
        k(    3) = (  -0.2000000   0.2000000  -0.2000000), wk =   0.0160000
        k(    4) = (  -0.3000000   0.3000000  -0.3000000), wk =   0.0160000
        k(    5) = (  -0.4000000   0.4000000  -0.4000000), wk =   0.0160000
        k(    6) = (   0.5000000  -0.5000000   0.5000000), wk =   0.0080000
        k(    7) = (   0.0000000   0.2000000   0.0000000), wk =   0.0120000
        k(    8) = (  -0.1000000   0.3000000  -0.1000000), wk =   0.0480000
        k(    9) = (  -0.2000000   0.4000000  -0.2000000), wk =   0.0480000
        k(   10) = (  -0.3000000   0.5000000  -0.3000000), wk =   0.0480000
        k(   11) = (   0.6000000  -0.4000000   0.6000000), wk =   0.0480000
        k(   12) = (   0.5000000  -0.3000000   0.5000000), wk =   0.0480000
        k(   13) = (   0.4000000  -0.2000000   0.4000000), wk =   0.0480000
        k(   14) = (   0.3000000  -0.1000000   0.3000000), wk =   0.0480000
        k(   15) = (   0.2000000   0.0000000   0.2000000), wk =   0.0240000
        k(   16) = (   0.0000000   0.4000000   0.0000000), wk =   0.0120000
        k(   17) = (  -0.1000000   0.5000000  -0.1000000), wk =   0.0480000
        k(   18) = (  -0.2000000   0.6000000  -0.2000000), wk =   0.0480000
        k(   19) = (   0.7000000  -0.3000000   0.7000000), wk =   0.0480000
        k(   20) = (   0.6000000  -0.2000000   0.6000000), wk =   0.0480000
        k(   21) = (   0.5000000  -0.1000000   0.5000000), wk =   0.0480000
        k(   22) = (   0.4000000   0.0000000   0.4000000), wk =   0.0240000
        k(   23) = (   0.0000000   0.6000000   0.0000000), wk =   0.0120000
        k(   24) = (  -0.1000000   0.7000000  -0.1000000), wk =   0.0480000
        k(   25) = (   0.8000000  -0.2000000   0.8000000), wk =   0.0480000
        k(   26) = (   0.7000000  -0.1000000   0.7000000), wk =   0.0480000
        k(   27) = (   0.6000000   0.0000000   0.6000000), wk =   0.0240000
        k(   28) = (   0.0000000   0.8000000   0.0000000), wk =   0.0120000
        k(   29) = (   0.9000000  -0.1000000   0.9000000), wk =   0.0480000
        k(   30) = (   0.8000000   0.0000000   0.8000000), wk =   0.0240000
        k(   31) = (   0.0000000  -1.0000000   0.0000000), wk =   0.0060000
        k(   32) = (  -0.2000000   0.4000000   0.0000000), wk =   0.0480000
        k(   33) = (  -0.3000000   0.5000000  -0.1000000), wk =   0.0960000
        k(   34) = (   0.6000000  -0.4000000   0.8000000), wk =   0.0960000
        k(   35) = (   0.5000000  -0.3000000   0.7000000), wk =   0.0480000
        k(   36) = (  -0.2000000   0.6000000   0.0000000), wk =   0.0480000
        k(   37) = (   0.7000000  -0.3000000   0.9000000), wk =   0.0960000
        k(   38) = (   0.6000000  -0.2000000   0.8000000), wk =   0.0960000
        k(   39) = (   0.5000000  -0.1000000   0.7000000), wk =   0.0960000
        k(   40) = (   0.4000000   0.0000000   0.6000000), wk =   0.0480000
        k(   41) = (   0.8000000  -0.2000000   1.0000000), wk =   0.0480000
        k(   42) = (   0.7000000  -0.1000000   0.9000000), wk =   0.0960000
        k(   43) = (   0.6000000   0.0000000   0.8000000), wk =   0.0480000
        k(   44) = (  -0.2000000  -1.0000000   0.0000000), wk =   0.0240000
        k(   45) = (   0.6000000  -0.2000000   1.0000000), wk =   0.0480000
        k(   46) = (   0.5000000  -0.1000000   0.9000000), wk =   0.0480000
        k(   47) = (  -0.4000000  -1.0000000   0.0000000), wk =   0.0240000

                       cryst. coord.
        k(    1) = (   0.0000000   0.0000000   0.0000000), wk =   0.0020000
        k(    2) = (   0.0000000   0.0000000   0.1000000), wk =   0.0160000
        k(    3) = (   0.0000000   0.0000000   0.2000000), wk =   0.0160000
        k(    4) = (   0.0000000   0.0000000   0.3000000), wk =   0.0160000
        k(    5) = (   0.0000000   0.0000000   0.4000000), wk =   0.0160000
        k(    6) = (   0.0000000   0.0000000  -0.5000000), wk =   0.0080000
        k(    7) = (   0.0000000   0.1000000   0.1000000), wk =   0.0120000
        k(    8) = (   0.0000000   0.1000000   0.2000000), wk =   0.0480000
        k(    9) = (   0.0000000   0.1000000   0.3000000), wk =   0.0480000
        k(   10) = (   0.0000000   0.1000000   0.4000000), wk =   0.0480000
        k(   11) = (   0.0000000   0.1000000  -0.5000000), wk =   0.0480000
        k(   12) = (   0.0000000   0.1000000  -0.4000000), wk =   0.0480000
        k(   13) = (   0.0000000   0.1000000  -0.3000000), wk =   0.0480000
        k(   14) = (   0.0000000   0.1000000  -0.2000000), wk =   0.0480000
        k(   15) = (   0.0000000   0.1000000  -0.1000000), wk =   0.0240000
        k(   16) = (   0.0000000   0.2000000   0.2000000), wk =   0.0120000
        k(   17) = (   0.0000000   0.2000000   0.3000000), wk =   0.0480000
        k(   18) = (   0.0000000   0.2000000   0.4000000), wk =   0.0480000
        k(   19) = (   0.0000000   0.2000000  -0.5000000), wk =   0.0480000
        k(   20) = (   0.0000000   0.2000000  -0.4000000), wk =   0.0480000
        k(   21) = (   0.0000000   0.2000000  -0.3000000), wk =   0.0480000
        k(   22) = (   0.0000000   0.2000000  -0.2000000), wk =   0.0240000
        k(   23) = (   0.0000000   0.3000000   0.3000000), wk =   0.0120000
        k(   24) = (   0.0000000   0.3000000   0.4000000), wk =   0.0480000
        k(   25) = (   0.0000000   0.3000000  -0.5000000), wk =   0.0480000
        k(   26) = (   0.0000000   0.3000000  -0.4000000), wk =   0.0480000
        k(   27) = (   0.0000000   0.3000000  -0.3000000), wk =   0.0240000
        k(   28) = (   0.0000000   0.4000000   0.4000000), wk =   0.0120000
        k(   29) = (   0.0000000   0.4000000  -0.5000000), wk =   0.0480000
        k(   30) = (   0.0000000   0.4000000  -0.4000000), wk =   0.0240000
        k(   31) = (   0.0000000  -0.5000000  -0.5000000), wk =   0.0060000
        k(   32) = (   0.1000000   0.2000000   0.3000000), wk =   0.0480000
        k(   33) = (   0.1000000   0.2000000   0.4000000), wk =   0.0960000
        k(   34) = (   0.1000000   0.2000000  -0.5000000), wk =   0.0960000
        k(   35) = (   0.1000000   0.2000000  -0.4000000), wk =   0.0480000
        k(   36) = (   0.1000000   0.3000000   0.4000000), wk =   0.0480000
        k(   37) = (   0.1000000   0.3000000  -0.5000000), wk =   0.0960000
        k(   38) = (   0.1000000   0.3000000  -0.4000000), wk =   0.0960000
        k(   39) = (   0.1000000   0.3000000  -0.3000000), wk =   0.0960000
        k(   40) = (   0.1000000   0.3000000  -0.2000000), wk =   0.0480000
        k(   41) = (   0.1000000   0.4000000  -0.5000000), wk =   0.0480000
        k(   42) = (   0.1000000   0.4000000  -0.4000000), wk =   0.0960000
        k(   43) = (   0.1000000   0.4000000  -0.3000000), wk =   0.0480000
        k(   44) = (   0.1000000  -0.5000000  -0.4000000), wk =   0.0240000
        k(   45) = (   0.2000000   0.4000000  -0.4000000), wk =   0.0480000
        k(   46) = (   0.2000000   0.4000000  -0.3000000), wk =   0.0480000
        k(   47) = (   0.2000000  -0.5000000  -0.3000000), wk =   0.0240000

     Dense  grid:    43895 G-vectors     FFT dimensions: (  50,  50,  50)

     Smooth grid:    15593 G-vectors     FFT dimensions: (  36,  36,  36)

     Dynamical RAM for                 wfc:       0.24 MB

     Dynamical RAM for     wfc (w. buffer):       0.24 MB

     Dynamical RAM for           str. fact:       0.67 MB

     Dynamical RAM for           local pot:       0.00 MB

     Dynamical RAM for          nlocal pot:       0.53 MB

     Dynamical RAM for                qrad:       1.90 MB

     Dynamical RAM for          rho,v,vnew:       4.87 MB

     Dynamical RAM for           G-vectors:       2.63 MB

     Dynamical RAM for          h,s,v(r/c):       0.01 MB

     Dynamical RAM for          <psi|beta>:       0.00 MB

     Dynamical RAM for                 psi:       0.47 MB

     Dynamical RAM for                hpsi:       0.47 MB

     Dynamical RAM for                spsi:       0.47 MB

     Dynamical RAM for      wfcinit/wfcrot:       0.53 MB

     Dynamical RAM for           addusdens:     125.25 MB

     Estimated static dynamical RAM per process >      16.95 MB

     Estimated max dynamical RAM per process >     142.20 MB

     The potential is recalculated from file :
     /home/elena/AEP_DFT/DFT/tmp/bands/Pb.save/charge-density

     Starting wfcs are    9 randomized atomic wfcs

     Band Structure Calculation
     Davidson diagonalization with overlap

     Computing kpt #:     1  of    47
     total cpu time spent up to now is        1.1 secs

     Computing kpt #:     2  of    47
     total cpu time spent up to now is        1.3 secs

     Computing kpt #:     3  of    47
     total cpu time spent up to now is        1.5 secs

     Computing kpt #:     4  of    47
     total cpu time spent up to now is        1.7 secs

     Computing kpt #:     5  of    47
     total cpu time spent up to now is        1.9 secs

     Computing kpt #:     6  of    47
     total cpu time spent up to now is        2.0 secs

     Computing kpt #:     7  of    47
     total cpu time spent up to now is        2.3 secs

     Computing kpt #:     8  of    47
     total cpu time spent up to now is        2.5 secs

     Computing kpt #:     9  of    47
     total cpu time spent up to now is        2.7 secs

     Computing kpt #:    10  of    47
     total cpu time spent up to now is        2.9 secs

     Computing kpt #:    11  of    47
     total cpu time spent up to now is        3.1 secs

     Computing kpt #:    12  of    47
     total cpu time spent up to now is        3.3 secs

     Computing kpt #:    13  of    47
     total cpu time spent up to now is        3.5 secs

     Computing kpt #:    14  of    47
     total cpu time spent up to now is        3.6 secs

     Computing kpt #:    15  of    47
     total cpu time spent up to now is        3.8 secs

     Computing kpt #:    16  of    47
     total cpu time spent up to now is        4.0 secs

     Computing kpt #:    17  of    47
     total cpu time spent up to now is        4.3 secs

     Computing kpt #:    18  of    47
     total cpu time spent up to now is        4.5 secs

     Computing kpt #:    19  of    47
     total cpu time spent up to now is        4.6 secs

     Computing kpt #:    20  of    47
     total cpu time spent up to now is        4.8 secs

     Computing kpt #:    21  of    47
     total cpu time spent up to now is        5.0 secs

     Computing kpt #:    22  of    47
     total cpu time spent up to now is        5.1 secs

     Computing kpt #:    23  of    47
     total cpu time spent up to now is        5.3 secs

     Computing kpt #:    24  of    47
     total cpu time spent up to now is        5.5 secs

     Computing kpt #:    25  of    47
     total cpu time spent up to now is        5.7 secs

     Computing kpt #:    26  of    47
     total cpu time spent up to now is        5.8 secs

     Computing kpt #:    27  of    47
     total cpu time spent up to now is        6.0 secs

     Computing kpt #:    28  of    47
     total cpu time spent up to now is        6.2 secs

     Computing kpt #:    29  of    47
     total cpu time spent up to now is        6.3 secs

     Computing kpt #:    30  of    47
     total cpu time spent up to now is        6.5 secs

     Computing kpt #:    31  of    47
     total cpu time spent up to now is        6.7 secs

     Computing kpt #:    32  of    47
     total cpu time spent up to now is        6.9 secs

     Computing kpt #:    33  of    47
     total cpu time spent up to now is        7.0 secs

     Computing kpt #:    34  of    47
     total cpu time spent up to now is        7.2 secs

     Computing kpt #:    35  of    47
     total cpu time spent up to now is        7.4 secs

     Computing kpt #:    36  of    47
     total cpu time spent up to now is        7.6 secs

     Computing kpt #:    37  of    47
     total cpu time spent up to now is        7.8 secs

     Computing kpt #:    38  of    47
     total cpu time spent up to now is        8.1 secs

     Computing kpt #:    39  of    47
     total cpu time spent up to now is        8.3 secs

     Computing kpt #:    40  of    47
     total cpu time spent up to now is        8.5 secs

     Computing kpt #:    41  of    47
     total cpu time spent up to now is        8.7 secs

     Computing kpt #:    42  of    47
     total cpu time spent up to now is        8.9 secs

     Computing kpt #:    43  of    47
     total cpu time spent up to now is        9.1 secs

     Computing kpt #:    44  of    47
     total cpu time spent up to now is        9.3 secs

     Computing kpt #:    45  of    47
     total cpu time spent up to now is        9.4 secs

     Computing kpt #:    46  of    47
     total cpu time spent up to now is        9.6 secs

     Computing kpt #:    47  of    47
     total cpu time spent up to now is        9.8 secs

     ethr =  7.14E-12,  avg # of iterations = 26.6

     Warning: ef = 11.985925 is above the highest band at k-point  26
              e  =  11.142777

     Warning: ef = 11.985925 is above the highest band at k-point  27
              e  =  10.988509

     Warning: ef = 11.985925 is above the highest band at k-point  30
              e  =  11.221843

     Warning: ef = 11.985925 is above the highest band at k-point  39
              e  =  11.947892

     Warning: ef = 11.985925 is above the highest band at k-point  42
              e  =  11.575005

     Warning: ef = 11.985925 is above the highest band at k-point  43
              e  =  10.187860

     Warning: ef = 11.985925 is above the highest band at k-point  45
              e  =  11.520167

     Warning: ef = 11.985925 is above the highest band at k-point  46
              e  =  10.989010

     Warning: ef = 11.985925 is above the highest band at k-point  47
              e  =  11.205803

     total cpu time spent up to now is        9.9 secs

     End of band structure calculation

          k = 0.0000 0.0000 0.0000 (  1917 PWs)   bands (ev):

    -5.2362  -5.2362  -5.2362  -5.0771  -5.0771  -0.1825  19.6427  19.6427

     occupation numbers 
     1.0000   1.0000   1.0000   1.0000   1.0000   1.0000   0.0000   0.0000

          k =-0.1000 0.1000-0.1000 (  1940 PWs)   bands (ev):

    -5.2372  -5.2208  -5.2208  -5.0778  -5.0778   0.0188  17.5269  19.3922

     occupation numbers 
     1.0000   1.0000   1.0000   1.0000   1.0000   1.0000   0.0000   0.0000

          k =-0.2000 0.2000-0.2000 (  1943 PWs)   bands (ev):

    -5.2430  -5.1974  -5.1974  -5.0615  -5.0615   0.6240  14.2693  18.8404

     occupation numbers 
     1.0000   1.0000   1.0000   1.0000   1.0000   1.0000  -0.0308   0.0000

          k =-0.3000 0.3000-0.3000 (  1934 PWs)   bands (ev):

    -5.2558  -5.2016  -5.2016  -5.0068  -5.0068   1.6176  11.2223  18.2727

     occupation numbers 
     1.0000   1.0000   1.0000   1.0000   1.0000   1.0000   0.8159   0.0000

          k =-0.4000 0.4000-0.4000 (  1937 PWs)   bands (ev):

    -5.2701  -5.2174  -5.2174  -4.9490  -4.9490   2.8788   8.6954  17.8643

     occupation numbers 
     1.0000   1.0000   1.0000   1.0000   1.0000   1.0000   1.0182   0.0000

          k = 0.5000-0.5000 0.5000 (  1946 PWs)   bands (ev):

    -5.2765  -5.2246  -5.2246  -4.9255  -4.9255   3.6995   7.4487  17.7163

     occupation numbers 
     1.0000   1.0000   1.0000   1.0000   1.0000   1.0000   1.0000   0.0000

          k = 0.0000 0.2000 0.0000 (  1941 PWs)   bands (ev):

    -5.2545  -5.2050  -5.2050  -5.0963  -5.0640   0.0857  18.1888  18.5761

     occupation numbers 
     1.0000   1.0000   1.0000   1.0000   1.0000   1.0000   0.0000   0.0000

          k =-0.1000 0.3000-0.1000 (  1945 PWs)   bands (ev):

    -5.2642  -5.1779  -5.1737  -5.1067  -5.0438   0.5562  15.3801  17.7856

     occupation numbers 
     1.0000   1.0000   1.0000   1.0000   1.0000   1.0000  -0.0297   0.0000

          k =-0.2000 0.4000-0.2000 (  1944 PWs)   bands (ev):

    -5.2653  -5.1862  -5.1678  -5.0697  -4.9945   1.4224  12.3051  17.2229

     occupation numbers 
     1.0000   1.0000   1.0000   1.0000   1.0000   1.0000   0.3303   0.0000

          k =-0.3000 0.5000-0.3000 (  1935 PWs)   bands (ev):

    -5.2665  -5.2083  -5.1827  -5.0088  -4.9418   2.6129   9.6167  16.8799

     occupation numbers 
     1.0000   1.0000   1.0000   1.0000   1.0000   1.0000   1.0379   0.0000

          k = 0.6000-0.4000 0.6000 (  1942 PWs)   bands (ev):

    -5.2645  -5.2228  -5.1963  -4.9608  -4.9238   3.7212   7.8184  16.2374

     occupation numbers 
     1.0000   1.0000   1.0000   1.0000   1.0000   1.0000   1.0000  -0.0021

          k = 0.5000-0.3000 0.5000 (  1941 PWs)   bands (ev):

    -5.2556  -5.2231  -5.1973  -4.9539  -4.9473   3.4243   8.2578  15.8918

     occupation numbers 
     1.0000   1.0000   1.0000   1.0000   1.0000   1.0000   1.0012  -0.0039

          k = 0.4000-0.2000 0.4000 (  1942 PWs)   bands (ev):

    -5.2468  -5.2081  -5.1849  -5.0201  -4.9721   2.1895  10.4588  15.9082

     occupation numbers 
     1.0000   1.0000   1.0000   1.0000   1.0000   1.0000   0.9828  -0.0000

          k = 0.3000-0.1000 0.3000 (  1940 PWs)   bands (ev):

    -5.2435  -5.1916  -5.1741  -5.0859  -5.0179   1.0915  13.2843  16.3113

     occupation numbers 
     1.0000   1.0000   1.0000   1.0000   1.0000   1.0000   0.0360   0.0000

          k = 0.2000 0.0000 0.2000 (  1945 PWs)   bands (ev):

    -5.2429  -5.2004  -5.1961  -5.0950  -5.0567   0.3548  16.0987  17.3454

     occupation numbers 
     1.0000   1.0000   1.0000   1.0000   1.0000   1.0000  -0.0098   0.0000

          k = 0.0000 0.4000 0.0000 (  1956 PWs)   bands (ev):

    -5.3017  -5.1521  -5.1212  -5.1212  -5.0294   0.8910  15.7287  16.8066

     occupation numbers 
     1.0000   1.0000   1.0000   1.0000   1.0000   1.0000  -0.0263   0.0000

          k =-0.1000 0.5000-0.1000 (  1946 PWs)   bands (ev):

    -5.3153  -5.1858  -5.0941  -5.0725  -4.9887   1.6222  13.3666  16.0570

     occupation numbers 
     1.0000   1.0000   1.0000   1.0000   1.0000   1.0000   0.0008   0.0000

          k =-0.2000 0.6000-0.2000 (  1936 PWs)   bands (ev):

    -5.3062  -5.1987  -5.1043  -5.0420  -4.9359   2.6988  10.7841  14.9341

     occupation numbers 
     1.0000   1.0000   1.0000   1.0000   1.0000   1.0000   0.9751  -0.0056

          k = 0.7000-0.3000 0.7000 (  1940 PWs)   bands (ev):

    -5.2911  -5.1861  -5.1212  -5.0258  -4.9192   3.8699   8.7748  13.9392

     occupation numbers 
     1.0000   1.0000   1.0000   1.0000   1.0000   1.0000   1.0009  -0.0426

          k = 0.6000-0.2000 0.6000 (  1941 PWs)   bands (ev):

    -5.2692  -5.1773  -5.1309  -5.0099  -4.9529   4.1174   8.4389  13.2944

     occupation numbers 
     1.0000   1.0000   1.0000   1.0000   1.0000   1.0000   1.0000  -0.0180

          k = 0.5000-0.1000 0.5000 (  1940 PWs)   bands (ev):

    -5.2387  -5.1932  -5.1273  -5.0255  -4.9935   3.0821  10.1032  13.1254

     occupation numbers 
     1.0000   1.0000   1.0000   1.0000   1.0000   1.0000   1.0181  -0.0076

          k = 0.4000 0.0000 0.4000 (  1947 PWs)   bands (ev):

    -5.2230  -5.2078  -5.1111  -5.1090  -4.9927   1.9396  12.1703  13.8515

     occupation numbers 
     1.0000   1.0000   1.0000   1.0000   1.0000   1.0000   0.5666  -0.0067

          k = 0.0000 0.6000 0.0000 (  1960 PWs)   bands (ev):

    -5.3599  -5.2302  -5.0132  -5.0132  -4.9864   2.2149  12.9147  15.3031

     occupation numbers 
     1.0000   1.0000   1.0000   1.0000   1.0000   1.0000   0.1871   0.0000

          k =-0.1000 0.7000-0.1000 (  1945 PWs)   bands (ev):

    -5.3665  -5.2557  -5.0106  -4.9789  -4.9337   3.1567  11.2303  13.9804

     occupation numbers 
     1.0000   1.0000   1.0000   1.0000   1.0000   1.0000   0.9523  -0.0164

          k = 0.8000-0.2000 0.8000 (  1934 PWs)   bands (ev):

    -5.3429  -5.2353  -5.0277  -4.9896  -4.9121   4.2554   9.6945  12.3322

     occupation numbers 
     1.0000   1.0000   1.0000   1.0000   1.0000   1.0000   1.0045   0.1455

          k = 0.7000-0.1000 0.7000 (  1930 PWs)   bands (ev):

    -5.3123  -5.1609  -5.0457  -5.0407  -4.9425   4.7980   9.1990  11.1428

     occupation numbers 
     1.0000   1.0000   1.0000   1.0000   1.0000   1.0000   1.0000   0.8658

          k = 0.6000 0.0000 0.6000 (  1933 PWs)   bands (ev):

    -5.2754  -5.1205  -5.0694  -5.0632  -5.0007   4.1328  10.0178  10.9885

     occupation numbers 
     1.0000   1.0000   1.0000   1.0000   1.0000   1.0000   1.0004   0.8592

          k = 0.0000 0.8000 0.0000 (  1944 PWs)   bands (ev):

    -5.4064  -5.2991  -4.9512  -4.9223  -4.9223   3.9431  10.0955  14.3277

     occupation numbers 
     1.0000   1.0000   1.0000   1.0000   1.0000   1.0000   1.0228  -0.0085

          k = 0.9000-0.1000 0.9000 (  1940 PWs)   bands (ev):

    -5.3982  -5.3036  -4.9574  -4.9167  -4.8992   4.8412   9.0611  12.9963

     occupation numbers 
     1.0000   1.0000   1.0000   1.0000   1.0000   1.0000   1.0020  -0.0183

          k = 0.8000 0.0000 0.8000 (  1930 PWs)   bands (ev):

    -5.3577  -5.2522  -4.9835  -4.9657  -4.9175   5.2124   9.0975  11.2218

     occupation numbers 
     1.0000   1.0000   1.0000   1.0000   1.0000   1.0000   1.0000   0.8877

          k = 0.0000-1.0000 0.0000 (  1964 PWs)   bands (ev):

    -5.4242  -5.3267  -4.9379  -4.8868  -4.8868   5.2143   8.4278  13.9909

     occupation numbers 
     1.0000   1.0000   1.0000   1.0000   1.0000   1.0000   1.0000  -0.0518

          k =-0.2000 0.4000 0.0000 (  1951 PWs)   bands (ev):

    -5.2735  -5.1731  -5.1249  -5.1204  -5.0111   1.1579  14.0063  15.5984

     occupation numbers 
     1.0000   1.0000   1.0000   1.0000   1.0000   1.0000  -0.0591   0.0000

          k =-0.3000 0.5000-0.1000 (  1943 PWs)   bands (ev):

    -5.2632  -5.1958  -5.1320  -5.0647  -4.9718   2.1331  11.5565  14.6488

     occupation numbers 
     1.0000   1.0000   1.0000   1.0000   1.0000   1.0000   0.8073  -0.0057

          k = 0.6000-0.4000 0.8000 (  1935 PWs)   bands (ev):

    -5.2501  -5.2190  -5.1381  -5.0179  -4.9426   3.3434   9.2199  14.3887

     occupation numbers 
     1.0000   1.0000   1.0000   1.0000   1.0000   1.0000   1.0128  -0.0353

          k = 0.5000-0.3000 0.7000 (  1936 PWs)   bands (ev):

    -5.2379  -5.2367  -5.1388  -4.9992  -4.9326   4.0987   8.0739  14.3614

     occupation numbers 
     1.0000   1.0000   1.0000   1.0000   1.0000   1.0000   1.0000  -0.0456

          k =-0.2000 0.6000 0.0000 (  1950 PWs)   bands (ev):

    -5.3224  -5.2148  -5.0798  -5.0158  -4.9611   2.4617  12.0971  14.1722

     occupation numbers 
     1.0000   1.0000   1.0000   1.0000   1.0000   1.0000   0.6433  -0.0087

          k = 0.7000-0.3000 0.9000 (  1936 PWs)   bands (ev):

    -5.2993  -5.2180  -5.0893  -4.9974  -4.9360   3.5726  10.2902  13.0998

     occupation numbers 
     1.0000   1.0000   1.0000   1.0000   1.0000   1.0000   1.0133  -0.0250

          k = 0.6000-0.2000 0.8000 (  1940 PWs)   bands (ev):

    -5.2761  -5.1882  -5.0866  -5.0366  -4.9270   4.5133   8.9456  12.3619

     occupation numbers 
     1.0000   1.0000   1.0000   1.0000   1.0000   1.0000   1.0000   0.2150

          k = 0.5000-0.1000 0.7000 (  1939 PWs)   bands (ev):

    -5.2516  -5.1844  -5.0901  -5.0422  -4.9568   4.2435   9.3751  11.9479

     occupation numbers 
     1.0000   1.0000   1.0000   1.0000   1.0000   1.0000   1.0003   0.3948

          k = 0.4000 0.0000 0.6000 (  1936 PWs)   bands (ev):

    -5.2246  -5.2222  -5.1143  -5.0197  -4.9869   3.1571  10.8123  12.4318

     occupation numbers 
     1.0000   1.0000   1.0000   1.0000   1.0000   1.0000   0.9969   0.0438

          k = 0.8000-0.2000 1.0000 (  1945 PWs)   bands (ev):

    -5.3626  -5.2737  -5.0084  -4.9358  -4.9231   4.1183  10.0864  13.2526

     occupation numbers 
     1.0000   1.0000   1.0000   1.0000   1.0000   1.0000   1.0103  -0.0475

          k = 0.7000-0.1000 0.9000 (  1932 PWs)   bands (ev):

    -5.3245  -5.2449  -5.0295  -4.9818  -4.9038   4.9817   9.4281  11.5750

     occupation numbers 
     1.0000   1.0000   1.0000   1.0000   1.0000   1.0000   1.0000   0.7276

          k = 0.6000 0.0000 0.8000 (  1937 PWs)   bands (ev):

    -5.2882  -5.1615  -5.0889  -5.0284  -4.9266   4.9989  10.0548  10.1879

     occupation numbers 
     1.0000   1.0000   1.0000   1.0000   1.0000   1.0000   1.0000   1.1208

          k =-0.2000-1.0000 0.0000 (  1948 PWs)   bands (ev):

    -5.3779  -5.2980  -4.9620  -4.9438  -4.8867   5.2527   8.7647  12.9349

     occupation numbers 
     1.0000   1.0000   1.0000   1.0000   1.0000   1.0000   1.0000   0.0126

          k = 0.6000-0.2000 1.0000 (  1928 PWs)   bands (ev):

    -5.2437  -5.2315  -5.1056  -4.9978  -4.9250   4.5558   9.9957  11.5202

     occupation numbers 
     1.0000   1.0000   1.0000   1.0000   1.0000   1.0000   1.0002   0.7561

          k = 0.5000-0.1000 0.9000 (  1932 PWs)   bands (ev):

    -5.2381  -5.1819  -5.1362  -5.0294  -4.9048   5.0757   9.7472  10.9890

     occupation numbers 
     1.0000   1.0000   1.0000   1.0000   1.0000   1.0000   1.0000   1.0029

          k =-0.4000-1.0000 0.0000 (  1930 PWs)   bands (ev):

    -5.2521  -5.2394  -5.0868  -5.0137  -4.8866   5.3185   9.7317  11.2058

     occupation numbers 
     1.0000   1.0000   1.0000   1.0000   1.0000   1.0000   1.0000   0.9980

     the Fermi energy is    11.9859 ev
     (compare with:    12.0520 eV, computed in scf)

     Writing output data file /home/elena/AEP_DFT/DFT/tmp/bands/Pb.save/

     init_run     :      0.61s CPU      0.65s WALL (       1 calls)
     electrons    :      8.94s CPU      8.98s WALL (       1 calls)

     Called by init_run:
     wfcinit      :      0.00s CPU      0.00s WALL (       1 calls)
     wfcinit:atom :      0.02s CPU      0.02s WALL (      47 calls)
     wfcinit:wfcr :      0.46s CPU      0.46s WALL (      47 calls)
     potinit      :      0.07s CPU      0.07s WALL (       1 calls)
     hinit0       :      0.44s CPU      0.45s WALL (       1 calls)

     Called by electrons:
     c_bands      :      8.90s CPU      8.93s WALL (       1 calls)
     v_of_rho     :      0.06s CPU      0.06s WALL (       1 calls)
     v_h          :      0.00s CPU      0.00s WALL (       1 calls)
     v_xc         :      0.06s CPU      0.06s WALL (       1 calls)
     newd         :      0.07s CPU      0.11s WALL (       1 calls)

     Called by c_bands:
     init_us_2    :      0.02s CPU      0.02s WALL (      47 calls)
     cegterg      :      8.32s CPU      8.35s WALL (      89 calls)

     Called by sum_band:

     Called by *egterg:
     cdiaghg      :      0.10s CPU      0.10s WALL (    1299 calls)
     cegterg:over :      0.45s CPU      0.45s WALL (    1252 calls)
     cegterg:upda :      0.25s CPU      0.25s WALL (    1252 calls)
     cegterg:last :      0.63s CPU      0.63s WALL (     805 calls)
     h_psi        :      6.91s CPU      6.94s WALL (    1388 calls)
     s_psi        :      0.27s CPU      0.27s WALL (    1388 calls)
     g_psi        :      0.04s CPU      0.04s WALL (    1252 calls)

     Called by h_psi:
     h_psi:calbec :      0.34s CPU      0.34s WALL (    1388 calls)
     vloc_psi     :      6.27s CPU      6.30s WALL (    1388 calls)
     add_vuspsi   :      0.28s CPU      0.28s WALL (    1388 calls)

     General routines
     calbec       :      0.34s CPU      0.34s WALL (    1388 calls)
     fft          :      0.02s CPU      0.02s WALL (      13 calls)
     ffts         :      0.00s CPU      0.00s WALL (       1 calls)
     fftw         :      5.70s CPU      5.72s WALL (   14424 calls)
     interpolate  :      0.01s CPU      0.01s WALL (       1 calls)
     davcio       :      0.00s CPU      0.01s WALL (      94 calls)


     PWSCF        :      9.79s CPU      9.89s WALL


   This run was terminated on:  22:35:44   1Jul2021            

=------------------------------------------------------------------------------=
   JOB DONE.
=------------------------------------------------------------------------------=
