
     Program PWSCF v.6.7MaX starts on  1Jul2021 at 22:36:15 

     This program is part of the open-source Quantum ESPRESSO suite
     for quantum simulation of materials; please cite
         "P. Giannozzi et al., J. Phys.:Condens. Matter 21 395502 (2009);
         "P. Giannozzi et al., J. Phys.:Condens. Matter 29 465901 (2017);
          URL http://www.quantum-espresso.org", 
     in publications or presentations arising from this work. More details at
     http://www.quantum-espresso.org/quote

     Serial version
     Waiting for input...
     Reading input from standard input

     Current dimensions of program PWSCF are:
     Max number of different atomic species (ntypx) = 10
     Max number of k-points (npk) =  40000
     Max angular momentum in pseudopotentials (lmaxx) =  3

     Atomic positions and unit cell read from directory:
     /home/elena/AEP_DFT/DFT/tmp/bands/Pb.save/

     file Pb.pbe-dn-rrkjus_psl.1.0.0.UPF: wavefunction(s)  6S 5D renormalized

     G-vector sticks info
     --------------------
     sticks:   dense  smooth     PW     G-vecs:    dense   smooth      PW
     Sum        1639     823    253                43895    15593    2685



     bravais-lattice index     =            2
     lattice parameter (alat)  =       9.2226  a.u.
     unit-cell volume          =     196.1075 (a.u.)^3
     number of atoms/cell      =            1
     number of atomic types    =            1
     number of electrons       =        14.00
     number of Kohn-Sham states=            8
     kinetic-energy cutoff     =      70.0000  Ry
     charge density cutoff     =     560.0000  Ry
     Exchange-correlation= PBE
                           (   1   4   3   4   0   0   0)

     celldm(1)=   9.222558  celldm(2)=   0.000000  celldm(3)=   0.000000
     celldm(4)=   0.000000  celldm(5)=   0.000000  celldm(6)=   0.000000

     crystal axes: (cart. coord. in units of alat)
               a(1) = (  -0.500000   0.000000   0.500000 )  
               a(2) = (   0.000000   0.500000   0.500000 )  
               a(3) = (  -0.500000   0.500000   0.000000 )  

     reciprocal axes: (cart. coord. in units 2 pi/alat)
               b(1) = ( -1.000000 -1.000000  1.000000 )  
               b(2) = (  1.000000  1.000000  1.000000 )  
               b(3) = ( -1.000000  1.000000 -1.000000 )  


     PseudoPot. # 1 for Pb read from file:
     /home/elena/qe-6.7/pseudo/Pb.pbe-dn-rrkjus_psl.1.0.0.UPF
     MD5 check sum: 1cf8f5e18580e6a90a35f98a53d336de
     Pseudo is Ultrasoft + core correction, Zval = 14.0
     Generated using &quot;atomic&quot; code by A. Dal Corso  v.6.3
     Using radial grid of 1281 points,  6 beta functions with: 
                l(1) =   0
                l(2) =   0
                l(3) =   1
                l(4) =   1
                l(5) =   2
                l(6) =   2
     Q(r) pseudized with 0 coefficients 


     atomic species   valence    mass     pseudopotential
        Pb            14.00   207.20000     Pb( 1.00)

     48 Sym. Ops., with inversion, found


                                    s                        frac. trans.

      isym =  1     identity                                     

 cryst.   s( 1) = (     1          0          0      )
                  (     0          1          0      )
                  (     0          0          1      )

 cart.    s( 1) = (  1.0000000  0.0000000  0.0000000 )
                  (  0.0000000  1.0000000  0.0000000 )
                  (  0.0000000  0.0000000  1.0000000 )


      isym =  2     180 deg rotation - cart. axis [0,0,1]        

 cryst.   s( 2) = (     0          1         -1      )
                  (     1          0         -1      )
                  (     0          0         -1      )

 cart.    s( 2) = ( -1.0000000  0.0000000  0.0000000 )
                  (  0.0000000 -1.0000000  0.0000000 )
                  (  0.0000000  0.0000000  1.0000000 )


      isym =  3     180 deg rotation - cart. axis [0,1,0]        

 cryst.   s( 3) = (    -1          0          0      )
                  (    -1          0          1      )
                  (    -1          1          0      )

 cart.    s( 3) = ( -1.0000000  0.0000000  0.0000000 )
                  (  0.0000000  1.0000000  0.0000000 )
                  (  0.0000000  0.0000000 -1.0000000 )


      isym =  4     180 deg rotation - cart. axis [1,0,0]        

 cryst.   s( 4) = (     0         -1          1      )
                  (     0         -1          0      )
                  (     1         -1          0      )

 cart.    s( 4) = (  1.0000000  0.0000000  0.0000000 )
                  (  0.0000000 -1.0000000  0.0000000 )
                  (  0.0000000  0.0000000 -1.0000000 )


      isym =  5     180 deg rotation - cart. axis [1,1,0]        

 cryst.   s( 5) = (     0         -1          0      )
                  (    -1          0          0      )
                  (     0          0         -1      )

 cart.    s( 5) = (  0.0000000  1.0000000  0.0000000 )
                  (  1.0000000  0.0000000  0.0000000 )
                  (  0.0000000  0.0000000 -1.0000000 )


      isym =  6     180 deg rotation - cart. axis [1,-1,0]       

 cryst.   s( 6) = (    -1          0          1      )
                  (     0         -1          1      )
                  (     0          0          1      )

 cart.    s( 6) = (  0.0000000 -1.0000000  0.0000000 )
                  ( -1.0000000  0.0000000  0.0000000 )
                  (  0.0000000  0.0000000 -1.0000000 )


      isym =  7      90 deg rotation - cart. axis [0,0,-1]       

 cryst.   s( 7) = (     0          1          0      )
                  (     0          1         -1      )
                  (    -1          1          0      )

 cart.    s( 7) = (  0.0000000  1.0000000  0.0000000 )
                  ( -1.0000000  0.0000000  0.0000000 )
                  (  0.0000000  0.0000000  1.0000000 )


      isym =  8      90 deg rotation - cart. axis [0,0,1]        

 cryst.   s( 8) = (     1          0         -1      )
                  (     1          0          0      )
                  (     1         -1          0      )

 cart.    s( 8) = (  0.0000000 -1.0000000  0.0000000 )
                  (  1.0000000  0.0000000  0.0000000 )
                  (  0.0000000  0.0000000  1.0000000 )


      isym =  9     180 deg rotation - cart. axis [1,0,1]        

 cryst.   s( 9) = (    -1          0          0      )
                  (     0          0         -1      )
                  (     0         -1          0      )

 cart.    s( 9) = (  0.0000000  0.0000000  1.0000000 )
                  (  0.0000000 -1.0000000  0.0000000 )
                  (  1.0000000  0.0000000  0.0000000 )


      isym = 10     180 deg rotation - cart. axis [-1,0,1]       

 cryst.   s(10) = (     1          0          0      )
                  (     1         -1          0      )
                  (     1          0         -1      )

 cart.    s(10) = (  0.0000000  0.0000000 -1.0000000 )
                  (  0.0000000 -1.0000000  0.0000000 )
                  ( -1.0000000  0.0000000  0.0000000 )


      isym = 11      90 deg rotation - cart. axis [0,1,0]        

 cryst.   s(11) = (     0          1         -1      )
                  (    -1          1          0      )
                  (     0          1          0      )

 cart.    s(11) = (  0.0000000  0.0000000  1.0000000 )
                  (  0.0000000  1.0000000  0.0000000 )
                  ( -1.0000000  0.0000000  0.0000000 )


      isym = 12      90 deg rotation - cart. axis [0,-1,0]       

 cryst.   s(12) = (     0         -1          1      )
                  (     0          0          1      )
                  (    -1          0          1      )

 cart.    s(12) = (  0.0000000  0.0000000 -1.0000000 )
                  (  0.0000000  1.0000000  0.0000000 )
                  (  1.0000000  0.0000000  0.0000000 )


      isym = 13     180 deg rotation - cart. axis [0,1,1]        

 cryst.   s(13) = (    -1          1          0      )
                  (     0          1          0      )
                  (     0          1         -1      )

 cart.    s(13) = ( -1.0000000  0.0000000  0.0000000 )
                  (  0.0000000  0.0000000  1.0000000 )
                  (  0.0000000  1.0000000  0.0000000 )


      isym = 14     180 deg rotation - cart. axis [0,1,-1]       

 cryst.   s(14) = (     0          0         -1      )
                  (     0         -1          0      )
                  (    -1          0          0      )

 cart.    s(14) = ( -1.0000000  0.0000000  0.0000000 )
                  (  0.0000000  0.0000000 -1.0000000 )
                  (  0.0000000 -1.0000000  0.0000000 )


      isym = 15      90 deg rotation - cart. axis [-1,0,0]       

 cryst.   s(15) = (     0          0          1      )
                  (    -1          0          1      )
                  (     0         -1          1      )

 cart.    s(15) = (  1.0000000  0.0000000  0.0000000 )
                  (  0.0000000  0.0000000  1.0000000 )
                  (  0.0000000 -1.0000000  0.0000000 )


      isym = 16      90 deg rotation - cart. axis [1,0,0]        

 cryst.   s(16) = (     1         -1          0      )
                  (     1          0         -1      )
                  (     1          0          0      )

 cart.    s(16) = (  1.0000000  0.0000000  0.0000000 )
                  (  0.0000000  0.0000000 -1.0000000 )
                  (  0.0000000  1.0000000  0.0000000 )


      isym = 17     120 deg rotation - cart. axis [-1,-1,-1]     

 cryst.   s(17) = (    -1          0          1      )
                  (    -1          1          0      )
                  (    -1          0          0      )

 cart.    s(17) = (  0.0000000  1.0000000  0.0000000 )
                  (  0.0000000  0.0000000  1.0000000 )
                  (  1.0000000  0.0000000  0.0000000 )


      isym = 18     120 deg rotation - cart. axis [-1,1,1]       

 cryst.   s(18) = (     0          1          0      )
                  (     0          0          1      )
                  (     1          0          0      )

 cart.    s(18) = (  0.0000000 -1.0000000  0.0000000 )
                  (  0.0000000  0.0000000  1.0000000 )
                  ( -1.0000000  0.0000000  0.0000000 )


      isym = 19     120 deg rotation - cart. axis [1,1,-1]       

 cryst.   s(19) = (     1          0         -1      )
                  (     0          0         -1      )
                  (     0          1         -1      )

 cart.    s(19) = (  0.0000000  1.0000000  0.0000000 )
                  (  0.0000000  0.0000000 -1.0000000 )
                  ( -1.0000000  0.0000000  0.0000000 )


      isym = 20     120 deg rotation - cart. axis [1,-1,1]       

 cryst.   s(20) = (     0         -1          0      )
                  (     1         -1          0      )
                  (     0         -1          1      )

 cart.    s(20) = (  0.0000000 -1.0000000  0.0000000 )
                  (  0.0000000  0.0000000 -1.0000000 )
                  (  1.0000000  0.0000000  0.0000000 )


      isym = 21     120 deg rotation - cart. axis [1,1,1]        

 cryst.   s(21) = (     0          0         -1      )
                  (     0          1         -1      )
                  (     1          0         -1      )

 cart.    s(21) = (  0.0000000  0.0000000  1.0000000 )
                  (  1.0000000  0.0000000  0.0000000 )
                  (  0.0000000  1.0000000  0.0000000 )


      isym = 22     120 deg rotation - cart. axis [-1,1,-1]      

 cryst.   s(22) = (    -1          1          0      )
                  (    -1          0          0      )
                  (    -1          0          1      )

 cart.    s(22) = (  0.0000000  0.0000000  1.0000000 )
                  ( -1.0000000  0.0000000  0.0000000 )
                  (  0.0000000 -1.0000000  0.0000000 )


      isym = 23     120 deg rotation - cart. axis [1,-1,-1]      

 cryst.   s(23) = (     0          0          1      )
                  (     1          0          0      )
                  (     0          1          0      )

 cart.    s(23) = (  0.0000000  0.0000000 -1.0000000 )
                  ( -1.0000000  0.0000000  0.0000000 )
                  (  0.0000000  1.0000000  0.0000000 )


      isym = 24     120 deg rotation - cart. axis [-1,-1,1]      

 cryst.   s(24) = (     1         -1          0      )
                  (     0         -1          1      )
                  (     0         -1          0      )

 cart.    s(24) = (  0.0000000  0.0000000 -1.0000000 )
                  (  1.0000000  0.0000000  0.0000000 )
                  (  0.0000000 -1.0000000  0.0000000 )


      isym = 25     inversion                                    

 cryst.   s(25) = (    -1          0          0      )
                  (     0         -1          0      )
                  (     0          0         -1      )

 cart.    s(25) = ( -1.0000000  0.0000000  0.0000000 )
                  (  0.0000000 -1.0000000  0.0000000 )
                  (  0.0000000  0.0000000 -1.0000000 )


      isym = 26     inv. 180 deg rotation - cart. axis [0,0,1]   

 cryst.   s(26) = (     0         -1          1      )
                  (    -1          0          1      )
                  (     0          0          1      )

 cart.    s(26) = (  1.0000000  0.0000000  0.0000000 )
                  (  0.0000000  1.0000000  0.0000000 )
                  (  0.0000000  0.0000000 -1.0000000 )


      isym = 27     inv. 180 deg rotation - cart. axis [0,1,0]   

 cryst.   s(27) = (     1          0          0      )
                  (     1          0         -1      )
                  (     1         -1          0      )

 cart.    s(27) = (  1.0000000  0.0000000  0.0000000 )
                  (  0.0000000 -1.0000000  0.0000000 )
                  (  0.0000000  0.0000000  1.0000000 )


      isym = 28     inv. 180 deg rotation - cart. axis [1,0,0]   

 cryst.   s(28) = (     0          1         -1      )
                  (     0          1          0      )
                  (    -1          1          0      )

 cart.    s(28) = ( -1.0000000  0.0000000  0.0000000 )
                  (  0.0000000  1.0000000  0.0000000 )
                  (  0.0000000  0.0000000  1.0000000 )


      isym = 29     inv. 180 deg rotation - cart. axis [1,1,0]   

 cryst.   s(29) = (     0          1          0      )
                  (     1          0          0      )
                  (     0          0          1      )

 cart.    s(29) = (  0.0000000 -1.0000000  0.0000000 )
                  ( -1.0000000  0.0000000  0.0000000 )
                  (  0.0000000  0.0000000  1.0000000 )


      isym = 30     inv. 180 deg rotation - cart. axis [1,-1,0]  

 cryst.   s(30) = (     1          0         -1      )
                  (     0          1         -1      )
                  (     0          0         -1      )

 cart.    s(30) = (  0.0000000  1.0000000  0.0000000 )
                  (  1.0000000  0.0000000  0.0000000 )
                  (  0.0000000  0.0000000  1.0000000 )


      isym = 31     inv.  90 deg rotation - cart. axis [0,0,-1]  

 cryst.   s(31) = (     0         -1          0      )
                  (     0         -1          1      )
                  (     1         -1          0      )

 cart.    s(31) = (  0.0000000 -1.0000000  0.0000000 )
                  (  1.0000000  0.0000000  0.0000000 )
                  (  0.0000000  0.0000000 -1.0000000 )


      isym = 32     inv.  90 deg rotation - cart. axis [0,0,1]   

 cryst.   s(32) = (    -1          0          1      )
                  (    -1          0          0      )
                  (    -1          1          0      )

 cart.    s(32) = (  0.0000000  1.0000000  0.0000000 )
                  ( -1.0000000  0.0000000  0.0000000 )
                  (  0.0000000  0.0000000 -1.0000000 )


      isym = 33     inv. 180 deg rotation - cart. axis [1,0,1]   

 cryst.   s(33) = (     1          0          0      )
                  (     0          0          1      )
                  (     0          1          0      )

 cart.    s(33) = (  0.0000000  0.0000000 -1.0000000 )
                  (  0.0000000  1.0000000  0.0000000 )
                  ( -1.0000000  0.0000000  0.0000000 )


      isym = 34     inv. 180 deg rotation - cart. axis [-1,0,1]  

 cryst.   s(34) = (    -1          0          0      )
                  (    -1          1          0      )
                  (    -1          0          1      )

 cart.    s(34) = (  0.0000000  0.0000000  1.0000000 )
                  (  0.0000000  1.0000000  0.0000000 )
                  (  1.0000000  0.0000000  0.0000000 )


      isym = 35     inv.  90 deg rotation - cart. axis [0,1,0]   

 cryst.   s(35) = (     0         -1          1      )
                  (     1         -1          0      )
                  (     0         -1          0      )

 cart.    s(35) = (  0.0000000  0.0000000 -1.0000000 )
                  (  0.0000000 -1.0000000  0.0000000 )
                  (  1.0000000  0.0000000  0.0000000 )


      isym = 36     inv.  90 deg rotation - cart. axis [0,-1,0]  

 cryst.   s(36) = (     0          1         -1      )
                  (     0          0         -1      )
                  (     1          0         -1      )

 cart.    s(36) = (  0.0000000  0.0000000  1.0000000 )
                  (  0.0000000 -1.0000000  0.0000000 )
                  ( -1.0000000  0.0000000  0.0000000 )


      isym = 37     inv. 180 deg rotation - cart. axis [0,1,1]   

 cryst.   s(37) = (     1         -1          0      )
                  (     0         -1          0      )
                  (     0         -1          1      )

 cart.    s(37) = (  1.0000000  0.0000000  0.0000000 )
                  (  0.0000000  0.0000000 -1.0000000 )
                  (  0.0000000 -1.0000000  0.0000000 )


      isym = 38     inv. 180 deg rotation - cart. axis [0,1,-1]  

 cryst.   s(38) = (     0          0          1      )
                  (     0          1          0      )
                  (     1          0          0      )

 cart.    s(38) = (  1.0000000  0.0000000  0.0000000 )
                  (  0.0000000  0.0000000  1.0000000 )
                  (  0.0000000  1.0000000  0.0000000 )


      isym = 39     inv.  90 deg rotation - cart. axis [-1,0,0]  

 cryst.   s(39) = (     0          0         -1      )
                  (     1          0         -1      )
                  (     0          1         -1      )

 cart.    s(39) = ( -1.0000000  0.0000000  0.0000000 )
                  (  0.0000000  0.0000000 -1.0000000 )
                  (  0.0000000  1.0000000  0.0000000 )


      isym = 40     inv.  90 deg rotation - cart. axis [1,0,0]   

 cryst.   s(40) = (    -1          1          0      )
                  (    -1          0          1      )
                  (    -1          0          0      )

 cart.    s(40) = ( -1.0000000  0.0000000  0.0000000 )
                  (  0.0000000  0.0000000  1.0000000 )
                  (  0.0000000 -1.0000000  0.0000000 )


      isym = 41     inv. 120 deg rotation - cart. axis [-1,-1,-1]

 cryst.   s(41) = (     1          0         -1      )
                  (     1         -1          0      )
                  (     1          0          0      )

 cart.    s(41) = (  0.0000000 -1.0000000  0.0000000 )
                  (  0.0000000  0.0000000 -1.0000000 )
                  ( -1.0000000  0.0000000  0.0000000 )


      isym = 42     inv. 120 deg rotation - cart. axis [-1,1,1]  

 cryst.   s(42) = (     0         -1          0      )
                  (     0          0         -1      )
                  (    -1          0          0      )

 cart.    s(42) = (  0.0000000  1.0000000  0.0000000 )
                  (  0.0000000  0.0000000 -1.0000000 )
                  (  1.0000000  0.0000000  0.0000000 )


      isym = 43     inv. 120 deg rotation - cart. axis [1,1,-1]  

 cryst.   s(43) = (    -1          0          1      )
                  (     0          0          1      )
                  (     0         -1          1      )

 cart.    s(43) = (  0.0000000 -1.0000000  0.0000000 )
                  (  0.0000000  0.0000000  1.0000000 )
                  (  1.0000000  0.0000000  0.0000000 )


      isym = 44     inv. 120 deg rotation - cart. axis [1,-1,1]  

 cryst.   s(44) = (     0          1          0      )
                  (    -1          1          0      )
                  (     0          1         -1      )

 cart.    s(44) = (  0.0000000  1.0000000  0.0000000 )
                  (  0.0000000  0.0000000  1.0000000 )
                  ( -1.0000000  0.0000000  0.0000000 )


      isym = 45     inv. 120 deg rotation - cart. axis [1,1,1]   

 cryst.   s(45) = (     0          0          1      )
                  (     0         -1          1      )
                  (    -1          0          1      )

 cart.    s(45) = (  0.0000000  0.0000000 -1.0000000 )
                  ( -1.0000000  0.0000000  0.0000000 )
                  (  0.0000000 -1.0000000  0.0000000 )


      isym = 46     inv. 120 deg rotation - cart. axis [-1,1,-1] 

 cryst.   s(46) = (     1         -1          0      )
                  (     1          0          0      )
                  (     1          0         -1      )

 cart.    s(46) = (  0.0000000  0.0000000 -1.0000000 )
                  (  1.0000000  0.0000000  0.0000000 )
                  (  0.0000000  1.0000000  0.0000000 )


      isym = 47     inv. 120 deg rotation - cart. axis [1,-1,-1] 

 cryst.   s(47) = (     0          0         -1      )
                  (    -1          0          0      )
                  (     0         -1          0      )

 cart.    s(47) = (  0.0000000  0.0000000  1.0000000 )
                  (  1.0000000  0.0000000  0.0000000 )
                  (  0.0000000 -1.0000000  0.0000000 )


      isym = 48     inv. 120 deg rotation - cart. axis [-1,-1,1] 

 cryst.   s(48) = (    -1          1          0      )
                  (     0          1         -1      )
                  (     0          1          0      )

 cart.    s(48) = (  0.0000000  0.0000000  1.0000000 )
                  ( -1.0000000  0.0000000  0.0000000 )
                  (  0.0000000  1.0000000  0.0000000 )


     point group O_h (m-3m) 
     there are 10 classes
     the character table:

       E     8C3   3C2   6C4   6C2'  i     8S6   3s_h  6S4   6s_d 
A_1g   1.00  1.00  1.00  1.00  1.00  1.00  1.00  1.00  1.00  1.00
A_2g   1.00  1.00  1.00 -1.00 -1.00  1.00  1.00  1.00 -1.00 -1.00
E_g    2.00 -1.00  2.00  0.00  0.00  2.00 -1.00  2.00  0.00  0.00
T_1g   3.00  0.00 -1.00  1.00 -1.00  3.00  0.00 -1.00  1.00 -1.00
T_2g   3.00  0.00 -1.00 -1.00  1.00  3.00  0.00 -1.00 -1.00  1.00
A_1u   1.00  1.00  1.00  1.00  1.00 -1.00 -1.00 -1.00 -1.00 -1.00
A_2u   1.00  1.00  1.00 -1.00 -1.00 -1.00 -1.00 -1.00  1.00  1.00
E_u    2.00 -1.00  2.00  0.00  0.00 -2.00  1.00 -2.00  0.00  0.00
T_1u   3.00  0.00 -1.00  1.00 -1.00 -3.00  0.00  1.00 -1.00  1.00
T_2u   3.00  0.00 -1.00 -1.00  1.00 -3.00  0.00  1.00  1.00 -1.00

     the symmetry operations in each class and the name of the first element:

     E        1
          identity                                               
     8C3     17   19   20   18   24   21   22   23
          120 deg rotation - cart. axis [-1,-1,-1]               
     3C2      2    4    3
          180 deg rotation - cart. axis [0,0,1]                  
     6C4      7    8   15   16   12   11
           90 deg rotation - cart. axis [0,0,-1]                 
     6C2'     5    6   14   13   10    9
          180 deg rotation - cart. axis [1,1,0]                  
     i       25
          inversion                                              
     8S6     41   43   44   42   48   45   46   47
          inv. 120 deg rotation - cart. axis [-1,-1,-1]          
     3s_h    26   28   27
          inv. 180 deg rotation - cart. axis [0,0,1]             
     6S4     31   32   39   40   36   35
          inv.  90 deg rotation - cart. axis [0,0,-1]            
     6s_d    29   30   38   37   34   33
          inv. 180 deg rotation - cart. axis [1,1,0]             

   Cartesian axes

     site n.     atom                  positions (alat units)
         1           Pb  tau(   1) = (   0.0000000   0.0000000   0.0000000  )

   Crystallographic axes

     site n.     atom                  positions (cryst. coord.)
         1           Pb  tau(   1) = (  0.0000000  0.0000000  0.0000000  )

     number of k points=   104 (tetrahedron method)
                       cart. coord. in units 2pi/alat
        k(    1) = (   0.0000000   0.0000000   0.0000000), wk =   0.0007289
        k(    2) = (  -0.0714286   0.0714286  -0.0714286), wk =   0.0058309
        k(    3) = (  -0.1428571   0.1428571  -0.1428571), wk =   0.0058309
        k(    4) = (  -0.2142857   0.2142857  -0.2142857), wk =   0.0058309
        k(    5) = (  -0.2857143   0.2857143  -0.2857143), wk =   0.0058309
        k(    6) = (  -0.3571429   0.3571429  -0.3571429), wk =   0.0058309
        k(    7) = (  -0.4285714   0.4285714  -0.4285714), wk =   0.0058309
        k(    8) = (   0.5000000  -0.5000000   0.5000000), wk =   0.0029155
        k(    9) = (   0.0000000   0.1428571   0.0000000), wk =   0.0043732
        k(   10) = (  -0.0714286   0.2142857  -0.0714286), wk =   0.0174927
        k(   11) = (  -0.1428571   0.2857143  -0.1428571), wk =   0.0174927
        k(   12) = (  -0.2142857   0.3571429  -0.2142857), wk =   0.0174927
        k(   13) = (  -0.2857143   0.4285714  -0.2857143), wk =   0.0174927
        k(   14) = (  -0.3571429   0.5000000  -0.3571429), wk =   0.0174927
        k(   15) = (   0.5714286  -0.4285714   0.5714286), wk =   0.0174927
        k(   16) = (   0.5000000  -0.3571429   0.5000000), wk =   0.0174927
        k(   17) = (   0.4285714  -0.2857143   0.4285714), wk =   0.0174927
        k(   18) = (   0.3571429  -0.2142857   0.3571429), wk =   0.0174927
        k(   19) = (   0.2857143  -0.1428571   0.2857143), wk =   0.0174927
        k(   20) = (   0.2142857  -0.0714286   0.2142857), wk =   0.0174927
        k(   21) = (   0.1428571   0.0000000   0.1428571), wk =   0.0087464
        k(   22) = (   0.0000000   0.2857143   0.0000000), wk =   0.0043732
        k(   23) = (  -0.0714286   0.3571429  -0.0714286), wk =   0.0174927
        k(   24) = (  -0.1428571   0.4285714  -0.1428571), wk =   0.0174927
        k(   25) = (  -0.2142857   0.5000000  -0.2142857), wk =   0.0174927
        k(   26) = (  -0.2857143   0.5714286  -0.2857143), wk =   0.0174927
        k(   27) = (   0.6428571  -0.3571429   0.6428571), wk =   0.0174927
        k(   28) = (   0.5714286  -0.2857143   0.5714286), wk =   0.0174927
        k(   29) = (   0.5000000  -0.2142857   0.5000000), wk =   0.0174927
        k(   30) = (   0.4285714  -0.1428571   0.4285714), wk =   0.0174927
        k(   31) = (   0.3571429  -0.0714286   0.3571429), wk =   0.0174927
        k(   32) = (   0.2857143  -0.0000000   0.2857143), wk =   0.0087464
        k(   33) = (   0.0000000   0.4285714   0.0000000), wk =   0.0043732
        k(   34) = (  -0.0714286   0.5000000  -0.0714286), wk =   0.0174927
        k(   35) = (  -0.1428571   0.5714286  -0.1428571), wk =   0.0174927
        k(   36) = (  -0.2142857   0.6428571  -0.2142857), wk =   0.0174927
        k(   37) = (   0.7142857  -0.2857143   0.7142857), wk =   0.0174927
        k(   38) = (   0.6428571  -0.2142857   0.6428571), wk =   0.0174927
        k(   39) = (   0.5714286  -0.1428571   0.5714286), wk =   0.0174927
        k(   40) = (   0.5000000  -0.0714286   0.5000000), wk =   0.0174927
        k(   41) = (   0.4285714   0.0000000   0.4285714), wk =   0.0087464
        k(   42) = (   0.0000000   0.5714286   0.0000000), wk =   0.0043732
        k(   43) = (  -0.0714286   0.6428571  -0.0714286), wk =   0.0174927
        k(   44) = (  -0.1428571   0.7142857  -0.1428571), wk =   0.0174927
        k(   45) = (   0.7857143  -0.2142857   0.7857143), wk =   0.0174927
        k(   46) = (   0.7142857  -0.1428571   0.7142857), wk =   0.0174927
        k(   47) = (   0.6428571  -0.0714286   0.6428571), wk =   0.0174927
        k(   48) = (   0.5714286   0.0000000   0.5714286), wk =   0.0087464
        k(   49) = (   0.0000000   0.7142857   0.0000000), wk =   0.0043732
        k(   50) = (  -0.0714286   0.7857143  -0.0714286), wk =   0.0174927
        k(   51) = (   0.8571429  -0.1428571   0.8571429), wk =   0.0174927
        k(   52) = (   0.7857143  -0.0714286   0.7857143), wk =   0.0174927
        k(   53) = (   0.7142857   0.0000000   0.7142857), wk =   0.0087464
        k(   54) = (   0.0000000   0.8571429   0.0000000), wk =   0.0043732
        k(   55) = (   0.9285714  -0.0714286   0.9285714), wk =   0.0174927
        k(   56) = (   0.8571429   0.0000000   0.8571429), wk =   0.0087464
        k(   57) = (   0.0000000  -1.0000000   0.0000000), wk =   0.0021866
        k(   58) = (  -0.1428571   0.2857143   0.0000000), wk =   0.0174927
        k(   59) = (  -0.2142857   0.3571429  -0.0714286), wk =   0.0349854
        k(   60) = (  -0.2857143   0.4285714  -0.1428571), wk =   0.0349854
        k(   61) = (  -0.3571429   0.5000000  -0.2142857), wk =   0.0349854
        k(   62) = (   0.5714286  -0.4285714   0.7142857), wk =   0.0349854
        k(   63) = (   0.5000000  -0.3571429   0.6428571), wk =   0.0174927
        k(   64) = (  -0.1428571   0.4285714   0.0000000), wk =   0.0174927
        k(   65) = (  -0.2142857   0.5000000  -0.0714286), wk =   0.0349854
        k(   66) = (  -0.2857143   0.5714286  -0.1428571), wk =   0.0349854
        k(   67) = (   0.6428571  -0.3571429   0.7857143), wk =   0.0349854
        k(   68) = (   0.5714286  -0.2857143   0.7142857), wk =   0.0349854
        k(   69) = (   0.5000000  -0.2142857   0.6428571), wk =   0.0349854
        k(   70) = (   0.4285714  -0.1428571   0.5714286), wk =   0.0349854
        k(   71) = (   0.3571429  -0.0714286   0.5000000), wk =   0.0349854
        k(   72) = (   0.2857143  -0.0000000   0.4285714), wk =   0.0174927
        k(   73) = (  -0.1428571   0.5714286  -0.0000000), wk =   0.0174927
        k(   74) = (  -0.2142857   0.6428571  -0.0714286), wk =   0.0349854
        k(   75) = (   0.7142857  -0.2857143   0.8571429), wk =   0.0349854
        k(   76) = (   0.6428571  -0.2142857   0.7857143), wk =   0.0349854
        k(   77) = (   0.5714286  -0.1428571   0.7142857), wk =   0.0349854
        k(   78) = (   0.5000000  -0.0714286   0.6428571), wk =   0.0349854
        k(   79) = (   0.4285714   0.0000000   0.5714286), wk =   0.0174927
        k(   80) = (  -0.1428571   0.7142857   0.0000000), wk =   0.0174927
        k(   81) = (   0.7857143  -0.2142857   0.9285714), wk =   0.0349854
        k(   82) = (   0.7142857  -0.1428571   0.8571429), wk =   0.0349854
        k(   83) = (   0.6428571  -0.0714286   0.7857143), wk =   0.0349854
        k(   84) = (   0.5714286   0.0000000   0.7142857), wk =   0.0174927
        k(   85) = (   0.8571429  -0.1428571   1.0000000), wk =   0.0174927
        k(   86) = (   0.7857143  -0.0714286   0.9285714), wk =   0.0349854
        k(   87) = (   0.7142857   0.0000000   0.8571429), wk =   0.0174927
        k(   88) = (  -0.1428571  -1.0000000   0.0000000), wk =   0.0087464
        k(   89) = (  -0.2857143   0.5714286   0.0000000), wk =   0.0174927
        k(   90) = (   0.6428571  -0.3571429   0.9285714), wk =   0.0349854
        k(   91) = (   0.5714286  -0.2857143   0.8571429), wk =   0.0349854
        k(   92) = (   0.5000000  -0.2142857   0.7857143), wk =   0.0174927
        k(   93) = (   0.7142857  -0.2857143   1.0000000), wk =   0.0174927
        k(   94) = (   0.6428571  -0.2142857   0.9285714), wk =   0.0349854
        k(   95) = (   0.5714286  -0.1428571   0.8571429), wk =   0.0349854
        k(   96) = (   0.5000000  -0.0714286   0.7857143), wk =   0.0349854
        k(   97) = (   0.4285714   0.0000000   0.7142857), wk =   0.0174927
        k(   98) = (   0.7142857  -0.1428571   1.0000000), wk =   0.0174927
        k(   99) = (   0.6428571  -0.0714286   0.9285714), wk =   0.0349854
        k(  100) = (   0.5714286   0.0000000   0.8571429), wk =   0.0174927
        k(  101) = (  -0.2857143  -1.0000000  -0.0000000), wk =   0.0087464
        k(  102) = (   0.5714286  -0.1428571   1.0000000), wk =   0.0174927
        k(  103) = (   0.5000000  -0.0714286   0.9285714), wk =   0.0174927
        k(  104) = (  -0.4285714  -1.0000000   0.0000000), wk =   0.0087464

                       cryst. coord.
        k(    1) = (   0.0000000   0.0000000   0.0000000), wk =   0.0007289
        k(    2) = (   0.0000000   0.0000000   0.0714286), wk =   0.0058309
        k(    3) = (   0.0000000   0.0000000   0.1428571), wk =   0.0058309
        k(    4) = (   0.0000000   0.0000000   0.2142857), wk =   0.0058309
        k(    5) = (   0.0000000   0.0000000   0.2857143), wk =   0.0058309
        k(    6) = (   0.0000000   0.0000000   0.3571429), wk =   0.0058309
        k(    7) = (   0.0000000   0.0000000   0.4285714), wk =   0.0058309
        k(    8) = (   0.0000000   0.0000000  -0.5000000), wk =   0.0029155
        k(    9) = (   0.0000000   0.0714286   0.0714286), wk =   0.0043732
        k(   10) = (   0.0000000   0.0714286   0.1428571), wk =   0.0174927
        k(   11) = (   0.0000000   0.0714286   0.2142857), wk =   0.0174927
        k(   12) = (   0.0000000   0.0714286   0.2857143), wk =   0.0174927
        k(   13) = (   0.0000000   0.0714286   0.3571429), wk =   0.0174927
        k(   14) = (   0.0000000   0.0714286   0.4285714), wk =   0.0174927
        k(   15) = (   0.0000000   0.0714286  -0.5000000), wk =   0.0174927
        k(   16) = (   0.0000000   0.0714286  -0.4285714), wk =   0.0174927
        k(   17) = (   0.0000000   0.0714286  -0.3571429), wk =   0.0174927
        k(   18) = (   0.0000000   0.0714286  -0.2857143), wk =   0.0174927
        k(   19) = (   0.0000000   0.0714286  -0.2142857), wk =   0.0174927
        k(   20) = (   0.0000000   0.0714286  -0.1428571), wk =   0.0174927
        k(   21) = (   0.0000000   0.0714286  -0.0714286), wk =   0.0087464
        k(   22) = (   0.0000000   0.1428571   0.1428571), wk =   0.0043732
        k(   23) = (   0.0000000   0.1428571   0.2142857), wk =   0.0174927
        k(   24) = (   0.0000000   0.1428571   0.2857143), wk =   0.0174927
        k(   25) = (   0.0000000   0.1428571   0.3571429), wk =   0.0174927
        k(   26) = (   0.0000000   0.1428571   0.4285714), wk =   0.0174927
        k(   27) = (   0.0000000   0.1428571  -0.5000000), wk =   0.0174927
        k(   28) = (   0.0000000   0.1428571  -0.4285714), wk =   0.0174927
        k(   29) = (   0.0000000   0.1428571  -0.3571429), wk =   0.0174927
        k(   30) = (   0.0000000   0.1428571  -0.2857143), wk =   0.0174927
        k(   31) = (   0.0000000   0.1428571  -0.2142857), wk =   0.0174927
        k(   32) = (   0.0000000   0.1428571  -0.1428571), wk =   0.0087464
        k(   33) = (   0.0000000   0.2142857   0.2142857), wk =   0.0043732
        k(   34) = (   0.0000000   0.2142857   0.2857143), wk =   0.0174927
        k(   35) = (   0.0000000   0.2142857   0.3571429), wk =   0.0174927
        k(   36) = (   0.0000000   0.2142857   0.4285714), wk =   0.0174927
        k(   37) = (   0.0000000   0.2142857  -0.5000000), wk =   0.0174927
        k(   38) = (   0.0000000   0.2142857  -0.4285714), wk =   0.0174927
        k(   39) = (   0.0000000   0.2142857  -0.3571429), wk =   0.0174927
        k(   40) = (   0.0000000   0.2142857  -0.2857143), wk =   0.0174927
        k(   41) = (   0.0000000   0.2142857  -0.2142857), wk =   0.0087464
        k(   42) = (   0.0000000   0.2857143   0.2857143), wk =   0.0043732
        k(   43) = (   0.0000000   0.2857143   0.3571429), wk =   0.0174927
        k(   44) = (   0.0000000   0.2857143   0.4285714), wk =   0.0174927
        k(   45) = (   0.0000000   0.2857143  -0.5000000), wk =   0.0174927
        k(   46) = (   0.0000000   0.2857143  -0.4285714), wk =   0.0174927
        k(   47) = (   0.0000000   0.2857143  -0.3571429), wk =   0.0174927
        k(   48) = (   0.0000000   0.2857143  -0.2857143), wk =   0.0087464
        k(   49) = (   0.0000000   0.3571429   0.3571429), wk =   0.0043732
        k(   50) = (   0.0000000   0.3571429   0.4285714), wk =   0.0174927
        k(   51) = (   0.0000000   0.3571429  -0.5000000), wk =   0.0174927
        k(   52) = (   0.0000000   0.3571429  -0.4285714), wk =   0.0174927
        k(   53) = (   0.0000000   0.3571429  -0.3571429), wk =   0.0087464
        k(   54) = (   0.0000000   0.4285714   0.4285714), wk =   0.0043732
        k(   55) = (   0.0000000   0.4285714  -0.5000000), wk =   0.0174927
        k(   56) = (   0.0000000   0.4285714  -0.4285714), wk =   0.0087464
        k(   57) = (   0.0000000  -0.5000000  -0.5000000), wk =   0.0021866
        k(   58) = (   0.0714286   0.1428571   0.2142857), wk =   0.0174927
        k(   59) = (   0.0714286   0.1428571   0.2857143), wk =   0.0349854
        k(   60) = (   0.0714286   0.1428571   0.3571429), wk =   0.0349854
        k(   61) = (   0.0714286   0.1428571   0.4285714), wk =   0.0349854
        k(   62) = (   0.0714286   0.1428571  -0.5000000), wk =   0.0349854
        k(   63) = (   0.0714286   0.1428571  -0.4285714), wk =   0.0174927
        k(   64) = (   0.0714286   0.2142857   0.2857143), wk =   0.0174927
        k(   65) = (   0.0714286   0.2142857   0.3571429), wk =   0.0349854
        k(   66) = (   0.0714286   0.2142857   0.4285714), wk =   0.0349854
        k(   67) = (   0.0714286   0.2142857  -0.5000000), wk =   0.0349854
        k(   68) = (   0.0714286   0.2142857  -0.4285714), wk =   0.0349854
        k(   69) = (   0.0714286   0.2142857  -0.3571429), wk =   0.0349854
        k(   70) = (   0.0714286   0.2142857  -0.2857143), wk =   0.0349854
        k(   71) = (   0.0714286   0.2142857  -0.2142857), wk =   0.0349854
        k(   72) = (   0.0714286   0.2142857  -0.1428571), wk =   0.0174927
        k(   73) = (   0.0714286   0.2857143   0.3571429), wk =   0.0174927
        k(   74) = (   0.0714286   0.2857143   0.4285714), wk =   0.0349854
        k(   75) = (   0.0714286   0.2857143  -0.5000000), wk =   0.0349854
        k(   76) = (   0.0714286   0.2857143  -0.4285714), wk =   0.0349854
        k(   77) = (   0.0714286   0.2857143  -0.3571429), wk =   0.0349854
        k(   78) = (   0.0714286   0.2857143  -0.2857143), wk =   0.0349854
        k(   79) = (   0.0714286   0.2857143  -0.2142857), wk =   0.0174927
        k(   80) = (   0.0714286   0.3571429   0.4285714), wk =   0.0174927
        k(   81) = (   0.0714286   0.3571429  -0.5000000), wk =   0.0349854
        k(   82) = (   0.0714286   0.3571429  -0.4285714), wk =   0.0349854
        k(   83) = (   0.0714286   0.3571429  -0.3571429), wk =   0.0349854
        k(   84) = (   0.0714286   0.3571429  -0.2857143), wk =   0.0174927
        k(   85) = (   0.0714286   0.4285714  -0.5000000), wk =   0.0174927
        k(   86) = (   0.0714286   0.4285714  -0.4285714), wk =   0.0349854
        k(   87) = (   0.0714286   0.4285714  -0.3571429), wk =   0.0174927
        k(   88) = (   0.0714286  -0.5000000  -0.4285714), wk =   0.0087464
        k(   89) = (   0.1428571   0.2857143   0.4285714), wk =   0.0174927
        k(   90) = (   0.1428571   0.2857143  -0.5000000), wk =   0.0349854
        k(   91) = (   0.1428571   0.2857143  -0.4285714), wk =   0.0349854
        k(   92) = (   0.1428571   0.2857143  -0.3571429), wk =   0.0174927
        k(   93) = (   0.1428571   0.3571429  -0.5000000), wk =   0.0174927
        k(   94) = (   0.1428571   0.3571429  -0.4285714), wk =   0.0349854
        k(   95) = (   0.1428571   0.3571429  -0.3571429), wk =   0.0349854
        k(   96) = (   0.1428571   0.3571429  -0.2857143), wk =   0.0349854
        k(   97) = (   0.1428571   0.3571429  -0.2142857), wk =   0.0174927
        k(   98) = (   0.1428571   0.4285714  -0.4285714), wk =   0.0174927
        k(   99) = (   0.1428571   0.4285714  -0.3571429), wk =   0.0349854
        k(  100) = (   0.1428571   0.4285714  -0.2857143), wk =   0.0174927
        k(  101) = (   0.1428571  -0.5000000  -0.3571429), wk =   0.0087464
        k(  102) = (   0.2142857   0.4285714  -0.3571429), wk =   0.0174927
        k(  103) = (   0.2142857   0.4285714  -0.2857143), wk =   0.0174927
        k(  104) = (   0.2142857  -0.5000000  -0.2857143), wk =   0.0087464

     Dense  grid:    43895 G-vectors     FFT dimensions: (  50,  50,  50)

     Smooth grid:    15593 G-vectors     FFT dimensions: (  36,  36,  36)

     Dynamical RAM for                 wfc:       0.24 MB

     Dynamical RAM for     wfc (w. buffer):       0.24 MB

     Dynamical RAM for           str. fact:       0.67 MB

     Dynamical RAM for           local pot:       0.00 MB

     Dynamical RAM for          nlocal pot:       0.53 MB

     Dynamical RAM for                qrad:       1.90 MB

     Dynamical RAM for          rho,v,vnew:       4.87 MB

     Dynamical RAM for           G-vectors:       2.63 MB

     Dynamical RAM for          h,s,v(r/c):       0.01 MB

     Dynamical RAM for          <psi|beta>:       0.00 MB

     Dynamical RAM for                 psi:       0.47 MB

     Dynamical RAM for                hpsi:       0.47 MB

     Dynamical RAM for                spsi:       0.47 MB

     Dynamical RAM for      wfcinit/wfcrot:       0.53 MB

     Dynamical RAM for           addusdens:     125.25 MB

     Estimated static dynamical RAM per process >      16.95 MB

     Estimated max dynamical RAM per process >     142.20 MB

     The potential is recalculated from file :
     /home/elena/AEP_DFT/DFT/tmp/bands/Pb.save/charge-density

     Starting wfcs are    9 randomized atomic wfcs

     Band Structure Calculation
     Davidson diagonalization with overlap

     Computing kpt #:     1  of   104
     total cpu time spent up to now is        1.3 secs

     Computing kpt #:     2  of   104
     total cpu time spent up to now is        1.5 secs

     Computing kpt #:     3  of   104
     total cpu time spent up to now is        1.7 secs

     Computing kpt #:     4  of   104
     total cpu time spent up to now is        1.9 secs

     Computing kpt #:     5  of   104
     total cpu time spent up to now is        2.1 secs

     Computing kpt #:     6  of   104
     total cpu time spent up to now is        2.3 secs

     Computing kpt #:     7  of   104
     total cpu time spent up to now is        2.4 secs

     Computing kpt #:     8  of   104
     total cpu time spent up to now is        2.6 secs

     Computing kpt #:     9  of   104
     total cpu time spent up to now is        2.9 secs

     Computing kpt #:    10  of   104
     total cpu time spent up to now is        3.1 secs

     Computing kpt #:    11  of   104
     total cpu time spent up to now is        3.3 secs

     Computing kpt #:    12  of   104
     total cpu time spent up to now is        3.5 secs

     Computing kpt #:    13  of   104
     total cpu time spent up to now is        3.7 secs

     Computing kpt #:    14  of   104
     total cpu time spent up to now is        4.0 secs

     Computing kpt #:    15  of   104
     total cpu time spent up to now is        4.2 secs

     Computing kpt #:    16  of   104
     total cpu time spent up to now is        4.3 secs

     Computing kpt #:    17  of   104
     total cpu time spent up to now is        4.5 secs

     Computing kpt #:    18  of   104
     total cpu time spent up to now is        4.7 secs

     Computing kpt #:    19  of   104
     total cpu time spent up to now is        4.9 secs

     Computing kpt #:    20  of   104
     total cpu time spent up to now is        5.1 secs

     Computing kpt #:    21  of   104
     total cpu time spent up to now is        5.3 secs

     Computing kpt #:    22  of   104
     total cpu time spent up to now is        5.5 secs

     Computing kpt #:    23  of   104
     total cpu time spent up to now is        5.7 secs

     Computing kpt #:    24  of   104
     total cpu time spent up to now is        5.9 secs

     Computing kpt #:    25  of   104
     total cpu time spent up to now is        6.1 secs

     Computing kpt #:    26  of   104
     total cpu time spent up to now is        6.3 secs

     Computing kpt #:    27  of   104
     total cpu time spent up to now is        6.5 secs

     Computing kpt #:    28  of   104
     total cpu time spent up to now is        6.7 secs

     Computing kpt #:    29  of   104
     total cpu time spent up to now is        6.9 secs

     Computing kpt #:    30  of   104
     total cpu time spent up to now is        7.1 secs

     Computing kpt #:    31  of   104
     total cpu time spent up to now is        7.2 secs

     Computing kpt #:    32  of   104
     total cpu time spent up to now is        7.4 secs

     Computing kpt #:    33  of   104
     total cpu time spent up to now is        7.6 secs

     Computing kpt #:    34  of   104
     total cpu time spent up to now is        7.9 secs

     Computing kpt #:    35  of   104
     total cpu time spent up to now is        8.1 secs

     Computing kpt #:    36  of   104
     total cpu time spent up to now is        8.3 secs

     Computing kpt #:    37  of   104
     total cpu time spent up to now is        8.4 secs

     Computing kpt #:    38  of   104
     total cpu time spent up to now is        8.6 secs

     Computing kpt #:    39  of   104
     total cpu time spent up to now is        8.8 secs

     Computing kpt #:    40  of   104
     total cpu time spent up to now is        8.9 secs

     Computing kpt #:    41  of   104
     total cpu time spent up to now is        9.1 secs

     Computing kpt #:    42  of   104
     total cpu time spent up to now is        9.3 secs

     Computing kpt #:    43  of   104
     total cpu time spent up to now is        9.5 secs

     Computing kpt #:    44  of   104
     total cpu time spent up to now is        9.7 secs

     Computing kpt #:    45  of   104
     total cpu time spent up to now is        9.8 secs

     Computing kpt #:    46  of   104
     total cpu time spent up to now is       10.0 secs

     Computing kpt #:    47  of   104
     total cpu time spent up to now is       10.2 secs

     Computing kpt #:    48  of   104
     total cpu time spent up to now is       10.3 secs

     Computing kpt #:    49  of   104
     total cpu time spent up to now is       10.5 secs

     Computing kpt #:    50  of   104
     total cpu time spent up to now is       10.7 secs

     Computing kpt #:    51  of   104
     total cpu time spent up to now is       10.9 secs

     Computing kpt #:    52  of   104
     total cpu time spent up to now is       11.1 secs

     Computing kpt #:    53  of   104
     total cpu time spent up to now is       11.2 secs

     Computing kpt #:    54  of   104
     total cpu time spent up to now is       11.4 secs

     Computing kpt #:    55  of   104
     total cpu time spent up to now is       11.6 secs

     Computing kpt #:    56  of   104
     total cpu time spent up to now is       11.8 secs

     Computing kpt #:    57  of   104
     total cpu time spent up to now is       12.0 secs

     Computing kpt #:    58  of   104
     total cpu time spent up to now is       12.2 secs

     Computing kpt #:    59  of   104
     total cpu time spent up to now is       12.3 secs

     Computing kpt #:    60  of   104
     total cpu time spent up to now is       12.5 secs

     Computing kpt #:    61  of   104
     total cpu time spent up to now is       12.7 secs

     Computing kpt #:    62  of   104
     total cpu time spent up to now is       12.9 secs

     Computing kpt #:    63  of   104
     total cpu time spent up to now is       13.1 secs

     Computing kpt #:    64  of   104
     total cpu time spent up to now is       13.3 secs

     Computing kpt #:    65  of   104
     total cpu time spent up to now is       13.4 secs

     Computing kpt #:    66  of   104
     total cpu time spent up to now is       13.6 secs

     Computing kpt #:    67  of   104
     total cpu time spent up to now is       13.8 secs

     Computing kpt #:    68  of   104
     total cpu time spent up to now is       14.0 secs

     Computing kpt #:    69  of   104
     total cpu time spent up to now is       14.2 secs

     Computing kpt #:    70  of   104
     total cpu time spent up to now is       14.4 secs

     Computing kpt #:    71  of   104
     total cpu time spent up to now is       14.6 secs

     Computing kpt #:    72  of   104
     total cpu time spent up to now is       14.7 secs

     Computing kpt #:    73  of   104
     total cpu time spent up to now is       14.9 secs

     Computing kpt #:    74  of   104
     total cpu time spent up to now is       15.1 secs

     Computing kpt #:    75  of   104
     total cpu time spent up to now is       15.3 secs

     Computing kpt #:    76  of   104
     total cpu time spent up to now is       15.5 secs

     Computing kpt #:    77  of   104
     total cpu time spent up to now is       15.7 secs

     Computing kpt #:    78  of   104
     total cpu time spent up to now is       15.8 secs

     Computing kpt #:    79  of   104
     total cpu time spent up to now is       16.0 secs

     Computing kpt #:    80  of   104
     total cpu time spent up to now is       16.2 secs

     Computing kpt #:    81  of   104
     total cpu time spent up to now is       16.4 secs

     Computing kpt #:    82  of   104
     total cpu time spent up to now is       16.6 secs

     Computing kpt #:    83  of   104
     total cpu time spent up to now is       16.7 secs

     Computing kpt #:    84  of   104
     total cpu time spent up to now is       16.9 secs

     Computing kpt #:    85  of   104
     total cpu time spent up to now is       17.1 secs

     Computing kpt #:    86  of   104
     total cpu time spent up to now is       17.3 secs

     Computing kpt #:    87  of   104
     total cpu time spent up to now is       17.4 secs

     Computing kpt #:    88  of   104
     total cpu time spent up to now is       17.7 secs

     Computing kpt #:    89  of   104
     total cpu time spent up to now is       17.9 secs

     Computing kpt #:    90  of   104
     total cpu time spent up to now is       18.0 secs

     Computing kpt #:    91  of   104
     total cpu time spent up to now is       18.2 secs

     Computing kpt #:    92  of   104
     total cpu time spent up to now is       18.4 secs

     Computing kpt #:    93  of   104
     total cpu time spent up to now is       18.6 secs

     Computing kpt #:    94  of   104
     total cpu time spent up to now is       18.8 secs

     Computing kpt #:    95  of   104
     total cpu time spent up to now is       19.0 secs

     Computing kpt #:    96  of   104
     total cpu time spent up to now is       19.2 secs

     Computing kpt #:    97  of   104
     total cpu time spent up to now is       19.3 secs

     Computing kpt #:    98  of   104
     total cpu time spent up to now is       19.5 secs

     Computing kpt #:    99  of   104
     total cpu time spent up to now is       19.7 secs

     Computing kpt #:   100  of   104
     total cpu time spent up to now is       19.9 secs

     Computing kpt #:   101  of   104
     total cpu time spent up to now is       20.1 secs

     Computing kpt #:   102  of   104
     total cpu time spent up to now is       20.3 secs

     Computing kpt #:   103  of   104
     total cpu time spent up to now is       20.5 secs

     Computing kpt #:   104  of   104
     total cpu time spent up to now is       20.7 secs

     ethr =  7.14E-12,  avg # of iterations = 27.3

     Warning: ef = 11.955762 is above the highest band at k-point  46
              e  =  11.633157

     Warning: ef = 11.955762 is above the highest band at k-point  47
              e  =  11.136678

     Warning: ef = 11.955762 is above the highest band at k-point  48
              e  =  11.344235

     Warning: ef = 11.955762 is above the highest band at k-point  52
              e  =  11.196642

     Warning: ef = 11.955762 is above the highest band at k-point  53
              e  =  10.226266

     Warning: ef = 11.955762 is above the highest band at k-point  78
              e  =  11.909198

     Warning: ef = 11.955762 is above the highest band at k-point  82
              e  =  11.716440

     Warning: ef = 11.955762 is above the highest band at k-point  83
              e  =  10.809032

     Warning: ef = 11.955762 is above the highest band at k-point  84
              e  =  10.565076

     Warning: ef = 11.955762 is above the highest band at k-point  87
              e  =  11.067207

     Warning: ef = 11.955762 is above the highest band at k-point  95
              e  =  11.527974

     Warning: ef = 11.955762 is above the highest band at k-point  96
              e  =  11.254578

     Warning: ef = 11.955762 is above the highest band at k-point  97
              e  =  11.608693

     Warning: ef = 11.955762 is above the highest band at k-point  99
              e  =  11.303446

     Warning: ef = 11.955762 is above the highest band at k-point 100
              e  =  10.340025

     Warning: ef = 11.955762 is above the highest band at k-point 102
              e  =  11.132657

     Warning: ef = 11.955762 is above the highest band at k-point 103
              e  =  10.716738

     Warning: ef = 11.955762 is above the highest band at k-point 104
              e  =  10.971146

     total cpu time spent up to now is       20.8 secs

     End of band structure calculation

          k = 0.0000 0.0000 0.0000 (  1917 PWs)   bands (ev):

    -5.2362  -5.2362  -5.2362  -5.0771  -5.0771  -0.1825  19.6427  19.6427

     occupation numbers 
     1.0000   1.0000   1.0000   1.0000   1.0000   1.0000   0.0000   0.0000

          k =-0.0714 0.0714-0.0714 (  1938 PWs)   bands (ev):

    -5.2367  -5.2279  -5.2279  -5.0780  -5.0780  -0.0799  18.3957  19.5091

     occupation numbers 
     1.0000   1.0000   1.0000   1.0000   1.0000   1.0000   0.0000   0.0000

          k =-0.1429 0.1429-0.1429 (  1934 PWs)   bands (ev):

    -5.2390  -5.2089  -5.2089  -5.0751  -5.0751   0.2287  16.1349  19.1734

     occupation numbers 
     1.0000   1.0000   1.0000   1.0000   1.0000   1.0000   0.0000   0.0000

          k =-0.2143 0.2143-0.2143 (  1943 PWs)   bands (ev):

    -5.2445  -5.1962  -5.1962  -5.0558  -5.0558   0.7432  13.8127  18.7551

     occupation numbers 
     1.0000   1.0000   1.0000   1.0000   1.0000   1.0000  -0.0380   0.0000

          k =-0.2857 0.2857-0.2857 (  1934 PWs)   bands (ev):

    -5.2537  -5.1996  -5.1996  -5.0159  -5.0159   1.4542  11.6329  18.3472

     occupation numbers 
     1.0000   1.0000   1.0000   1.0000   1.0000   1.0000   0.6879   0.0000

          k =-0.3571 0.3571-0.3571 (  1931 PWs)   bands (ev):

    -5.2644  -5.2109  -5.2109  -4.9712  -4.9712   2.3248   9.6908  18.0119

     occupation numbers 
     1.0000   1.0000   1.0000   1.0000   1.0000   1.0000   1.0272   0.0000

          k =-0.4286 0.4286-0.4286 (  1937 PWs)   bands (ev):

    -5.2730  -5.2208  -5.2208  -4.9378  -4.9378   3.2250   8.1408  17.7926

     occupation numbers 
     1.0000   1.0000   1.0000   1.0000   1.0000   1.0000   1.0000   0.0000

          k = 0.5000-0.5000 0.5000 (  1946 PWs)   bands (ev):

    -5.2765  -5.2246  -5.2246  -4.9255  -4.9255   3.6995   7.4487  17.7163

     occupation numbers 
     1.0000   1.0000   1.0000   1.0000   1.0000   1.0000   1.0000   0.0000

          k = 0.0000 0.1429 0.0000 (  1933 PWs)   bands (ev):

    -5.2457  -5.2201  -5.2201  -5.0869  -5.0704  -0.0457  18.7942  19.0355

     occupation numbers 
     1.0000   1.0000   1.0000   1.0000   1.0000   1.0000   0.0000   0.0000

          k =-0.0714 0.2143-0.0714 (  1940 PWs)   bands (ev):

    -5.2517  -5.2017  -5.1997  -5.0955  -5.0622   0.1941  16.8943  18.4976

     occupation numbers 
     1.0000   1.0000   1.0000   1.0000   1.0000   1.0000   0.0000   0.0000

          k =-0.1429 0.2857-0.1429 (  1940 PWs)   bands (ev):

    -5.2537  -5.1878  -5.1824  -5.0913  -5.0426   0.6401  14.6073  18.0035

     occupation numbers 
     1.0000   1.0000   1.0000   1.0000   1.0000   1.0000  -0.0180   0.0000

          k =-0.2143 0.3571-0.2143 (  1948 PWs)   bands (ev):

    -5.2567  -5.1921  -5.1810  -5.0609  -5.0060   1.2865  12.3950  17.6142

     occupation numbers 
     1.0000   1.0000   1.0000   1.0000   1.0000   1.0000   0.2062   0.0000

          k =-0.2857 0.4286-0.2857 (  1940 PWs)   bands (ev):

    -5.2614  -5.2061  -5.1907  -5.0155  -4.9643   2.1081  10.3811  17.3675

     occupation numbers 
     1.0000   1.0000   1.0000   1.0000   1.0000   1.0000   1.0264   0.0000

          k =-0.3571 0.5000-0.3571 (  1941 PWs)   bands (ev):

    -5.2660  -5.2191  -5.2024  -4.9726  -4.9338   3.0188   8.6878  17.2082

     occupation numbers 
     1.0000   1.0000   1.0000   1.0000   1.0000   1.0000   1.0000   0.0000

          k = 0.5714-0.4286 0.5714 (  1939 PWs)   bands (ev):

    -5.2676  -5.2259  -5.2099  -4.9441  -4.9246   3.7082   7.6408  16.8542

     occupation numbers 
     1.0000   1.0000   1.0000   1.0000   1.0000   1.0000   1.0000   0.0000

          k = 0.5000-0.3571 0.5000 (  1935 PWs)   bands (ev):

    -5.2649  -5.2244  -5.2104  -4.9402  -4.9369   3.5411   7.8806  16.6498

     occupation numbers 
     1.0000   1.0000   1.0000   1.0000   1.0000   1.0000   1.0000   0.0000

          k = 0.4286-0.2857 0.4286 (  1935 PWs)   bands (ev):

    -5.2588  -5.2151  -5.2036  -4.9774  -4.9520   2.7155   9.2077  16.6155

     occupation numbers 
     1.0000   1.0000   1.0000   1.0000   1.0000   1.0000   1.0054   0.0000

          k = 0.3571-0.2143 0.3571 (  1939 PWs)   bands (ev):

    -5.2517  -5.2020  -5.1924  -5.0269  -4.9840   1.8175  11.0268  16.7543

     occupation numbers 
     1.0000   1.0000   1.0000   1.0000   1.0000   1.0000   0.9377   0.0000

          k = 0.2857-0.1429 0.2857 (  1936 PWs)   bands (ev):

    -5.2461  -5.1921  -5.1852  -5.0721  -5.0222   1.0496  13.1113  17.0606

     occupation numbers 
     1.0000   1.0000   1.0000   1.0000   1.0000   1.0000   0.0195   0.0000

          k = 0.2143-0.0714 0.2143 (  1945 PWs)   bands (ev):

    -5.2431  -5.1962  -5.1941  -5.0916  -5.0528   0.4688  15.3383  17.5366

     occupation numbers 
     1.0000   1.0000   1.0000   1.0000   1.0000   1.0000  -0.0011   0.0000

          k = 0.1429 0.0000 0.1429 (  1935 PWs)   bands (ev):

    -5.2406  -5.2176  -5.2100  -5.0872  -5.0690   0.0914  17.3786  18.3247

     occupation numbers 
     1.0000   1.0000   1.0000   1.0000   1.0000   1.0000   0.0000   0.0000

          k = 0.0000 0.2857 0.0000 (  1944 PWs)   bands (ev):

    -5.2720  -5.1743  -5.1743  -5.1161  -5.0512   0.3652  17.1844  17.8168

     occupation numbers 
     1.0000   1.0000   1.0000   1.0000   1.0000   1.0000   0.0000   0.0000

          k =-0.0714 0.3571-0.0714 (  1953 PWs)   bands (ev):

    -5.2832  -5.1566  -5.1482  -5.1223  -5.0334   0.7421  15.3602  17.2328

     occupation numbers 
     1.0000   1.0000   1.0000   1.0000   1.0000   1.0000  -0.0003   0.0000

          k =-0.1429 0.4286-0.1429 (  1942 PWs)   bands (ev):

    -5.2845  -5.1719  -5.1393  -5.0928  -4.9992   1.3206  13.2258  16.7974

     occupation numbers 
     1.0000   1.0000   1.0000   1.0000   1.0000   1.0000  -0.0021   0.0000

          k =-0.2143 0.5000-0.2143 (  1943 PWs)   bands (ev):

    -5.2812  -5.1886  -5.1461  -5.0571  -4.9587   2.0818  11.2086  16.4332

     occupation numbers 
     1.0000   1.0000   1.0000   1.0000   1.0000   1.0000   0.9106   0.0000

          k =-0.2857 0.5714-0.2857 (  1933 PWs)   bands (ev):

    -5.2767  -5.2000  -5.1581  -5.0218  -4.9294   2.9643   9.4468  15.7848

     occupation numbers 
     1.0000   1.0000   1.0000   1.0000   1.0000   1.0000   1.0083   0.0000

          k = 0.6429-0.3571 0.6429 (  1949 PWs)   bands (ev):

    -5.2702  -5.2073  -5.1686  -4.9914  -4.9222   3.7611   8.1753  15.2421

     occupation numbers 
     1.0000   1.0000   1.0000   1.0000   1.0000   1.0000   1.0000  -0.0006

          k = 0.5714-0.2857 0.5714 (  1948 PWs)   bands (ev):

    -5.2588  -5.2121  -5.1734  -4.9718  -4.9404   3.9136   7.9618  14.8621

     occupation numbers 
     1.0000   1.0000   1.0000   1.0000   1.0000   1.0000   1.0000  -0.0033

          k = 0.5000-0.2143 0.5000 (  1938 PWs)   bands (ev):

    -5.2434  -5.2153  -5.1709  -4.9810  -4.9670   3.2499   8.9763  14.6777

     occupation numbers 
     1.0000   1.0000   1.0000   1.0000   1.0000   1.0000   1.0000  -0.0039

          k = 0.4286-0.1429 0.4286 (  1941 PWs)   bands (ev):

    -5.2327  -5.2121  -5.1615  -5.0356  -4.9772   2.3623  10.6097  14.7115

     occupation numbers 
     1.0000   1.0000   1.0000   1.0000   1.0000   1.0000   1.0222  -0.0001

          k = 0.3571-0.0714 0.3571 (  1936 PWs)   bands (ev):

    -5.2358  -5.1984  -5.1509  -5.0890  -4.9987   1.5537  12.4986  15.0078

     occupation numbers 
     1.0000   1.0000   1.0000   1.0000   1.0000   1.0000   0.1768   0.0000

          k = 0.2857-0.0000 0.2857 (  1945 PWs)   bands (ev):

    -5.2417  -5.1896  -5.1660  -5.1061  -5.0261   0.9131  14.2671  15.8085

     occupation numbers 
     1.0000   1.0000   1.0000   1.0000   1.0000   1.0000  -0.0340   0.0000

          k = 0.0000 0.4286 0.0000 (  1948 PWs)   bands (ev):

    -5.3099  -5.1625  -5.1063  -5.1063  -5.0234   1.0494  15.3453  16.5664

     occupation numbers 
     1.0000   1.0000   1.0000   1.0000   1.0000   1.0000   0.0000   0.0000

          k =-0.0714 0.5000-0.0714 (  1953 PWs)   bands (ev):

    -5.3225  -5.1876  -5.0829  -5.0707  -4.9965   1.5583  13.8094  16.0175

     occupation numbers 
     1.0000   1.0000   1.0000   1.0000   1.0000   1.0000  -0.0540   0.0000

          k =-0.1429 0.5714-0.1429 (  1954 PWs)   bands (ev):

    -5.3202  -5.2032  -5.0848  -5.0456  -4.9560   2.2529  11.9856  15.2062

     occupation numbers 
     1.0000   1.0000   1.0000   1.0000   1.0000   1.0000   0.5583   0.0000

          k =-0.2143 0.6429-0.2143 (  1946 PWs)   bands (ev):

    -5.3099  -5.2020  -5.0960  -5.0330  -4.9256   3.0855  10.2836  14.3609

     occupation numbers 
     1.0000   1.0000   1.0000   1.0000   1.0000   1.0000   1.0290  -0.0018

          k = 0.7143-0.2857 0.7143 (  1936 PWs)   bands (ev):

    -5.2976  -5.1857  -5.1081  -5.0289  -4.9184   3.9091   8.9362  13.6356

     occupation numbers 
     1.0000   1.0000   1.0000   1.0000   1.0000   1.0000   1.0000  -0.0286

          k = 0.6429-0.2143 0.6429 (  1946 PWs)   bands (ev):

    -5.2823  -5.1695  -5.1170  -5.0251  -4.9377   4.3018   8.3921  13.0975

     occupation numbers 
     1.0000   1.0000   1.0000   1.0000   1.0000   1.0000   1.0000  -0.0237

          k = 0.5714-0.1429 0.5714 (  1937 PWs)   bands (ev):

    -5.2620  -5.1702  -5.1200  -5.0134  -4.9798   3.8769   9.0340  12.7914

     occupation numbers 
     1.0000   1.0000   1.0000   1.0000   1.0000   1.0000   1.0000   0.0136

          k = 0.5000-0.0714 0.5000 (  1945 PWs)   bands (ev):

    -5.2384  -5.1886  -5.1162  -5.0366  -4.9984   3.0577  10.3795  12.7901

     occupation numbers 
     1.0000   1.0000   1.0000   1.0000   1.0000   1.0000   1.0114  -0.0082

          k = 0.4286 0.0000 0.4286 (  1949 PWs)   bands (ev):

    -5.2155  -5.2140  -5.1094  -5.0935  -4.9911   2.2384  11.7269  13.3934

     occupation numbers 
     1.0000   1.0000   1.0000   1.0000   1.0000   1.0000   0.8430  -0.0072

          k = 0.0000 0.5714 0.0000 (  1960 PWs)   bands (ev):

    -5.3518  -5.2187  -5.0286  -5.0286  -4.9924   1.9963  13.3302  15.4893

     occupation numbers 
     1.0000   1.0000   1.0000   1.0000   1.0000   1.0000  -0.0626   0.0000

          k =-0.0714 0.6429-0.0714 (  1953 PWs)   bands (ev):

    -5.3617  -5.2415  -5.0182  -4.9981  -4.9567   2.6205  12.0929  14.6731

     occupation numbers 
     1.0000   1.0000   1.0000   1.0000   1.0000   1.0000   0.5202   0.0000

          k =-0.1429 0.7143-0.1429 (  1938 PWs)   bands (ev):

    -5.3528  -5.2462  -5.0280  -4.9881  -4.9227   3.3891  10.7686  13.5110

     occupation numbers 
     1.0000   1.0000   1.0000   1.0000   1.0000   1.0000   1.0189  -0.0093

          k = 0.7857-0.2143 0.7857 (  1938 PWs)   bands (ev):

    -5.3348  -5.2237  -5.0408  -5.0005  -4.9133   4.1848   9.6301  12.4502

     occupation numbers 
     1.0000   1.0000   1.0000   1.0000   1.0000   1.0000   1.0000   0.0464

          k = 0.7143-0.1429 0.7143 (  1941 PWs)   bands (ev):

    -5.3147  -5.1750  -5.0531  -5.0316  -4.9311   4.6924   9.0457  11.6332

     occupation numbers 
     1.0000   1.0000   1.0000   1.0000   1.0000   1.0000   1.0000   0.6800

          k = 0.6429-0.0714 0.6429 (  1933 PWs)   bands (ev):

    -5.2912  -5.1208  -5.0690  -5.0641  -4.9704   4.5106   9.4080  11.1367

     occupation numbers 
     1.0000   1.0000   1.0000   1.0000   1.0000   1.0000   1.0000   0.9483

          k = 0.5714 0.0000 0.5714 (  1933 PWs)   bands (ev):

    -5.2644  -5.1404  -5.0794  -5.0417  -5.0155   3.8337  10.1629  11.3442

     occupation numbers 
     1.0000   1.0000   1.0000   1.0000   1.0000   1.0000   1.0000   0.8042

          k = 0.0000 0.7143 0.0000 (  1960 PWs)   bands (ev):

    -5.3892  -5.2730  -4.9643  -4.9565  -4.9565   3.1707  11.2637  14.6721

     occupation numbers 
     1.0000   1.0000   1.0000   1.0000   1.0000   1.0000   0.9627   0.0000

          k =-0.0714 0.7857-0.0714 (  1946 PWs)   bands (ev):

    -5.3930  -5.2881  -4.9704  -4.9370  -4.9189   3.8614  10.2667  13.8075

     occupation numbers 
     1.0000   1.0000   1.0000   1.0000   1.0000   1.0000   1.0159  -0.0017

          k = 0.8571-0.1429 0.8571 (  1945 PWs)   bands (ev):

    -5.3757  -5.2792  -4.9819  -4.9451  -4.9059   4.5789   9.4924  12.4680

     occupation numbers 
     1.0000   1.0000   1.0000   1.0000   1.0000   1.0000   1.0001   0.0414

          k = 0.7857-0.0714 0.7857 (  1931 PWs)   bands (ev):

    -5.3494  -5.2382  -4.9971  -4.9789  -4.9192   5.0545   9.2516  11.1966

     occupation numbers 
     1.0000   1.0000   1.0000   1.0000   1.0000   1.0000   1.0000   0.9861

          k = 0.7143 0.0000 0.7143 (  1930 PWs)   bands (ev):

    -5.3212  -5.1715  -5.0314  -5.0210  -4.9479   4.9932   9.7719  10.2263

     occupation numbers 
     1.0000   1.0000   1.0000   1.0000   1.0000   1.0000   1.0000   1.0433

          k = 0.0000 0.8571 0.0000 (  1948 PWs)   bands (ev):

    -5.4150  -5.3124  -4.9447  -4.9051  -4.9051   4.4491   9.3972  14.1635

     occupation numbers 
     1.0000   1.0000   1.0000   1.0000   1.0000   1.0000   1.0005   0.0000

          k = 0.9286-0.0714 0.9286 (  1944 PWs)   bands (ev):

    -5.4104  -5.3150  -4.9470  -4.9023  -4.8941   5.0030   8.7808  13.3956

     occupation numbers 
     1.0000   1.0000   1.0000   1.0000   1.0000   1.0000   1.0000  -0.0170

          k = 0.8571 0.0000 0.8571 (  1948 PWs)   bands (ev):

    -5.3839  -5.2914  -4.9625  -4.9292  -4.9026   5.2367   8.7724  12.1451

     occupation numbers 
     1.0000   1.0000   1.0000   1.0000   1.0000   1.0000   1.0000   0.2170

          k = 0.0000-1.0000 0.0000 (  1964 PWs)   bands (ev):

    -5.4242  -5.3267  -4.9379  -4.8868  -4.8868   5.2143   8.4278  13.9909

     occupation numbers 
     1.0000   1.0000   1.0000   1.0000   1.0000   1.0000   1.0000   0.0000

          k =-0.1429 0.2857 0.0000 (  1945 PWs)   bands (ev):

    -5.2599  -5.1819  -5.1765  -5.1079  -5.0463   0.5027  15.8013  17.0742

     occupation numbers 
     1.0000   1.0000   1.0000   1.0000   1.0000   1.0000   0.0000   0.0000

          k =-0.2143 0.3571-0.0714 (  1942 PWs)   bands (ev):

    -5.2603  -5.1803  -5.1555  -5.1034  -5.0187   1.0153  13.8755  16.2589

     occupation numbers 
     1.0000   1.0000   1.0000   1.0000   1.0000   1.0000  -0.0432   0.0000

          k =-0.2857 0.4286-0.1429 (  1939 PWs)   bands (ev):

    -5.2578  -5.1937  -5.1587  -5.0659  -4.9837   1.7203  11.8123  15.8455

     occupation numbers 
     1.0000   1.0000   1.0000   1.0000   1.0000   1.0000   0.6119   0.0000

          k =-0.3571 0.5000-0.2143 (  1936 PWs)   bands (ev):

    -5.2557  -5.2111  -5.1689  -5.0198  -4.9523   2.5773   9.9340  15.6332

     occupation numbers 
     1.0000   1.0000   1.0000   1.0000   1.0000   1.0000   1.0313   0.0000

          k = 0.5714-0.4286 0.7143 (  1941 PWs)   bands (ev):

    -5.2539  -5.2259  -5.1770  -4.9815  -4.9341   3.4523   8.4338  15.5667

     occupation numbers 
     1.0000   1.0000   1.0000   1.0000   1.0000   1.0000   1.0000  -0.0000

          k = 0.5000-0.3571 0.6429 (  1948 PWs)   bands (ev):

    -5.2524  -5.2325  -5.1800  -4.9653  -4.9298   3.9049   7.7713  15.5652

     occupation numbers 
     1.0000   1.0000   1.0000   1.0000   1.0000   1.0000   1.0000   0.0000

          k =-0.1429 0.4286 0.0000 (  1952 PWs)   bands (ev):

    -5.2943  -5.1664  -5.1179  -5.1086  -5.0106   1.1853  14.2916  15.8575

     occupation numbers 
     1.0000   1.0000   1.0000   1.0000   1.0000   1.0000  -0.0296   0.0000

          k =-0.2143 0.5000-0.0714 (  1942 PWs)   bands (ev):

    -5.2920  -5.1851  -5.1168  -5.0721  -4.9786   1.8228  12.5752  15.0675

     occupation numbers 
     1.0000   1.0000   1.0000   1.0000   1.0000   1.0000   0.1358   0.0000

          k =-0.2857 0.5714-0.1429 (  1943 PWs)   bands (ev):

    -5.2826  -5.1975  -5.1227  -5.0443  -4.9481   2.6233  10.7634  14.6447

     occupation numbers 
     1.0000   1.0000   1.0000   1.0000   1.0000   1.0000   1.0141  -0.0000

          k = 0.6429-0.3571 0.7857 (  1936 PWs)   bands (ev):

    -5.2725  -5.2035  -5.1269  -5.0257  -4.9297   3.4916   9.2027  14.3185

     occupation numbers 
     1.0000   1.0000   1.0000   1.0000   1.0000   1.0000   1.0000  -0.0063

          k = 0.5714-0.2857 0.7143 (  1942 PWs)   bands (ev):

    -5.2617  -5.2088  -5.1275  -5.0133  -4.9298   4.1216   8.2584  14.0014

     occupation numbers 
     1.0000   1.0000   1.0000   1.0000   1.0000   1.0000   1.0000  -0.0242

          k = 0.5000-0.2143 0.6429 (  1943 PWs)   bands (ev):

    -5.2470  -5.2158  -5.1284  -5.0085  -4.9464   3.9643   8.4925  13.7584

     occupation numbers 
     1.0000   1.0000   1.0000   1.0000   1.0000   1.0000   1.0000  -0.0349

          k = 0.4286-0.1429 0.5714 (  1935 PWs)   bands (ev):

    -5.2285  -5.2251  -5.1297  -5.0235  -4.9657   3.1955   9.7183  13.6856

     occupation numbers 
     1.0000   1.0000   1.0000   1.0000   1.0000   1.0000   1.0052  -0.0292

          k = 0.3571-0.0714 0.5000 (  1942 PWs)   bands (ev):

    -5.2394  -5.2076  -5.1265  -5.0636  -4.9786   2.3357  11.3544  13.8762

     occupation numbers 
     1.0000   1.0000   1.0000   1.0000   1.0000   1.0000   0.9361  -0.0051

          k = 0.2857-0.0000 0.4286 (  1939 PWs)   bands (ev):

    -5.2537  -5.1896  -5.1181  -5.1109  -4.9953   1.5878  12.9147  14.6026

     occupation numbers 
     1.0000   1.0000   1.0000   1.0000   1.0000   1.0000   0.0365   0.0000

          k =-0.1429 0.5714-0.0000 (  1950 PWs)   bands (ev):

    -5.3330  -5.2111  -5.0680  -5.0302  -4.9723   2.1255  12.7694  14.8231

     occupation numbers 
     1.0000   1.0000   1.0000   1.0000   1.0000   1.0000   0.0720   0.0000

          k =-0.2143 0.6429-0.0714 (  1943 PWs)   bands (ev):

    -5.3253  -5.2228  -5.0725  -5.0047  -4.9449   2.8603  11.3784  13.9476

     occupation numbers 
     1.0000   1.0000   1.0000   1.0000   1.0000   1.0000   0.9481  -0.0022

          k = 0.7143-0.2857 0.8571 (  1930 PWs)   bands (ev):

    -5.3088  -5.2138  -5.0814  -5.0065  -4.9251   3.6876   9.9836  13.1938

     occupation numbers 
     1.0000   1.0000   1.0000   1.0000   1.0000   1.0000   1.0041  -0.0325

          k = 0.6429-0.2143 0.7857 (  1940 PWs)   bands (ev):

    -5.2925  -5.1863  -5.0853  -5.0294  -4.9244   4.3873   8.9776  12.5411

     occupation numbers 
     1.0000   1.0000   1.0000   1.0000   1.0000   1.0000   1.0000   0.0640

          k = 0.5714-0.1429 0.7143 (  1939 PWs)   bands (ev):

    -5.2744  -5.1660  -5.0736  -5.0594  -4.9454   4.4903   8.8829  12.0781

     occupation numbers 
     1.0000   1.0000   1.0000   1.0000   1.0000   1.0000   1.0000   0.3708

          k = 0.5000-0.0714 0.6429 (  1944 PWs)   bands (ev):

    -5.2525  -5.1751  -5.0948  -5.0331  -4.9831   3.9046   9.7537  11.9092

     occupation numbers 
     1.0000   1.0000   1.0000   1.0000   1.0000   1.0000   1.0000   0.3926

          k = 0.4286 0.0000 0.5714 (  1948 PWs)   bands (ev):

    -5.2289  -5.2068  -5.1088  -5.0342  -4.9942   3.0958  10.8053  12.3751

     occupation numbers 
     1.0000   1.0000   1.0000   1.0000   1.0000   1.0000   1.0089   0.0311

          k =-0.1429 0.7143 0.0000 (  1944 PWs)   bands (ev):

    -5.3677  -5.2611  -5.0122  -4.9572  -4.9401   3.2823  11.1101  14.0402

     occupation numbers 
     1.0000   1.0000   1.0000   1.0000   1.0000   1.0000   1.0038   0.0000

          k = 0.7857-0.2143 0.9286 (  1948 PWs)   bands (ev):

    -5.3524  -5.2613  -5.0217  -4.9546  -4.9195   4.0425  10.1503  12.8862

     occupation numbers 
     1.0000   1.0000   1.0000   1.0000   1.0000   1.0000   1.0042  -0.0245

          k = 0.7143-0.1429 0.8571 (  1937 PWs)   bands (ev):

    -5.3286  -5.2318  -5.0358  -4.9847  -4.9131   4.7204   9.4762  11.7164

     occupation numbers 
     1.0000   1.0000   1.0000   1.0000   1.0000   1.0000   1.0000   0.6100

          k = 0.6429-0.0714 0.7857 (  1933 PWs)   bands (ev):

    -5.3050  -5.1746  -5.0608  -5.0244  -4.9300   4.9541   9.4676  10.8090

     occupation numbers 
     1.0000   1.0000   1.0000   1.0000   1.0000   1.0000   1.0000   1.0515

          k = 0.5714 0.0000 0.7143 (  1928 PWs)   bands (ev):

    -5.2794  -5.1142  -5.1117  -5.0437  -4.9615   4.5804   9.9625  10.5651

     occupation numbers 
     1.0000   1.0000   1.0000   1.0000   1.0000   1.0000   1.0000   1.0840

          k = 0.8571-0.1429 1.0000 (  1943 PWs)   bands (ev):

    -5.3917  -5.2980  -4.9684  -4.9212  -4.9054   4.5202   9.4700  13.5525

     occupation numbers 
     1.0000   1.0000   1.0000   1.0000   1.0000   1.0000   1.0002  -0.0256

          k = 0.7857-0.0714 0.9286 (  1937 PWs)   bands (ev):

    -5.3676  -5.2842  -4.9786  -4.9483  -4.8961   5.0680   9.0547  12.2819

     occupation numbers 
     1.0000   1.0000   1.0000   1.0000   1.0000   1.0000   1.0000   0.1492

          k = 0.7143 0.0000 0.8571 (  1923 PWs)   bands (ev):

    -5.3359  -5.2389  -5.0020  -4.9939  -4.9078   5.2191   9.2762  11.0672

     occupation numbers 
     1.0000   1.0000   1.0000   1.0000   1.0000   1.0000   1.0000   1.0383

          k =-0.1429-1.0000 0.0000 (  1944 PWs)   bands (ev):

    -5.4003  -5.3115  -4.9505  -4.9164  -4.8867   5.2350   8.6007  13.3869

     occupation numbers 
     1.0000   1.0000   1.0000   1.0000   1.0000   1.0000   1.0000  -0.0453

          k =-0.2857 0.5714 0.0000 (  1937 PWs)   bands (ev):

    -5.2804  -5.2020  -5.1136  -5.0337  -4.9685   2.5031  11.7428  13.5892

     occupation numbers 
     1.0000   1.0000   1.0000   1.0000   1.0000   1.0000   0.8362  -0.0047

          k = 0.6429-0.3571 0.9286 (  1933 PWs)   bands (ev):

    -5.2588  -5.2134  -5.1132  -5.0113  -4.9606   3.3111  10.4746  12.9146

     occupation numbers 
     1.0000   1.0000   1.0000   1.0000   1.0000   1.0000   1.0118  -0.0202

          k = 0.5714-0.2857 0.8571 (  1943 PWs)   bands (ev):

    -5.2455  -5.2142  -5.0992  -5.0299  -4.9410   4.1032   9.2430  12.7186

     occupation numbers 
     1.0000   1.0000   1.0000   1.0000   1.0000   1.0000   1.0000   0.0063

          k = 0.5000-0.2143 0.7857 (  1930 PWs)   bands (ev):

    -5.2435  -5.2117  -5.0733  -5.0593  -4.9319   4.4897   8.6935  12.6852

     occupation numbers 
     1.0000   1.0000   1.0000   1.0000   1.0000   1.0000   1.0000   0.0240

          k = 0.7143-0.2857 1.0000 (  1940 PWs)   bands (ev):

    -5.3067  -5.2337  -5.0788  -4.9594  -4.9560   3.6000  10.6787  12.8265

     occupation numbers 
     1.0000   1.0000   1.0000   1.0000   1.0000   1.0000   1.0107  -0.0234

          k = 0.6429-0.2143 0.9286 (  1937 PWs)   bands (ev):

    -5.2788  -5.2246  -5.0896  -4.9892  -4.9274   4.3568   9.8732  12.0547

     occupation numbers 
     1.0000   1.0000   1.0000   1.0000   1.0000   1.0000   1.0000   0.3319

          k = 0.5714-0.1429 0.8571 (  1941 PWs)   bands (ev):

    -5.2618  -5.1907  -5.1009  -5.0282  -4.9176   4.8456   9.3598  11.5280

     occupation numbers 
     1.0000   1.0000   1.0000   1.0000   1.0000   1.0000   1.0000   0.8697

          k = 0.5000-0.0714 0.7857 (  1934 PWs)   bands (ev):

    -5.2477  -5.1791  -5.1132  -5.0340  -4.9309   4.7034   9.6013  11.2546

     occupation numbers 
     1.0000   1.0000   1.0000   1.0000   1.0000   1.0000   1.0000   0.9637

          k = 0.4286 0.0000 0.7143 (  1936 PWs)   bands (ev):

    -5.2316  -5.2163  -5.1144  -5.0015  -4.9617   4.0681  10.1916  11.6087

     occupation numbers 
     1.0000   1.0000   1.0000   1.0000   1.0000   1.0000   1.0000   0.6587

          k = 0.7143-0.1429 1.0000 (  1938 PWs)   bands (ev):

    -5.3253  -5.2620  -5.0332  -4.9630  -4.9061   4.7086   9.6600  12.3527

     occupation numbers 
     1.0000   1.0000   1.0000   1.0000   1.0000   1.0000   1.0000   0.1525

          k = 0.6429-0.0714 0.9286 (  1927 PWs)   bands (ev):

    -5.2910  -5.2345  -5.0590  -5.0011  -4.8965   5.1531   9.5595  11.3034

     occupation numbers 
     1.0000   1.0000   1.0000   1.0000   1.0000   1.0000   1.0000   1.0063

          k = 0.5714 0.0000 0.8571 (  1921 PWs)   bands (ev):

    -5.2679  -5.1761  -5.1105  -5.0256  -4.9077   5.1298  10.0799  10.3400

     occupation numbers 
     1.0000   1.0000   1.0000   1.0000   1.0000   1.0000   1.0000   1.0243

          k =-0.2857-1.0000-0.0000 (  1940 PWs)   bands (ev):

    -5.3320  -5.2729  -4.9979  -4.9839  -4.8867   5.2834   9.1074  12.1920

     occupation numbers 
     1.0000   1.0000   1.0000   1.0000   1.0000   1.0000   1.0000   0.3946

          k = 0.5714-0.1429 1.0000 (  1930 PWs)   bands (ev):

    -5.2323  -5.2259  -5.1140  -5.0127  -4.9069   4.9427   9.9248  11.1327

     occupation numbers 
     1.0000   1.0000   1.0000   1.0000   1.0000   1.0000   1.0000   1.0319

          k = 0.5000-0.0714 0.9286 (  1926 PWs)   bands (ev):

    -5.2340  -5.1767  -5.1514  -5.0269  -4.8965   5.1925  10.0152  10.7167

     occupation numbers 
     1.0000   1.0000   1.0000   1.0000   1.0000   1.0000   1.0000   1.0226

          k =-0.4286-1.0000 0.0000 (  1922 PWs)   bands (ev):

    -5.2332  -5.2297  -5.1106  -5.0192  -4.8866   5.3241   9.9150  10.9711

     occupation numbers 
     1.0000   1.0000   1.0000   1.0000   1.0000   1.0000   1.0000   1.0239

     the Fermi energy is    11.9558 ev
     (compare with:    11.9591 eV, computed in scf)

     Writing output data file /home/elena/AEP_DFT/DFT/tmp/bands/Pb.save/

     init_run     :      0.60s CPU      0.67s WALL (       1 calls)
     electrons    :     19.57s CPU     19.68s WALL (       1 calls)

     Called by init_run:
     wfcinit      :      0.00s CPU      0.00s WALL (       1 calls)
     wfcinit:atom :      0.04s CPU      0.04s WALL (     104 calls)
     wfcinit:wfcr :      0.97s CPU      0.98s WALL (     104 calls)
     potinit      :      0.05s CPU      0.07s WALL (       1 calls)
     hinit0       :      0.45s CPU      0.45s WALL (       1 calls)

     Called by electrons:
     c_bands      :     19.45s CPU     19.56s WALL (       1 calls)
     v_of_rho     :      0.04s CPU      0.06s WALL (       1 calls)
     v_h          :      0.00s CPU      0.00s WALL (       1 calls)
     v_xc         :      0.04s CPU      0.06s WALL (       1 calls)
     newd         :      0.06s CPU      0.11s WALL (       1 calls)

     Called by c_bands:
     init_us_2    :      0.05s CPU      0.05s WALL (     104 calls)
     cegterg      :     18.21s CPU     18.29s WALL (     198 calls)

     Called by sum_band:

     Called by *egterg:
     cdiaghg      :      0.22s CPU      0.22s WALL (    2942 calls)
     cegterg:over :      0.99s CPU      1.00s WALL (    2838 calls)
     cegterg:upda :      0.57s CPU      0.57s WALL (    2838 calls)
     cegterg:last :      1.40s CPU      1.41s WALL (    1789 calls)
     h_psi        :     15.02s CPU     15.10s WALL (    3140 calls)
     s_psi        :      0.60s CPU      0.61s WALL (    3140 calls)
     g_psi        :      0.09s CPU      0.09s WALL (    2838 calls)

     Called by h_psi:
     h_psi:calbec :      0.75s CPU      0.75s WALL (    3140 calls)
     vloc_psi     :     13.60s CPU     13.68s WALL (    3140 calls)
     add_vuspsi   :      0.62s CPU      0.62s WALL (    3140 calls)

     General routines
     calbec       :      0.74s CPU      0.75s WALL (    3140 calls)
     fft          :      0.02s CPU      0.03s WALL (      13 calls)
     ffts         :      0.00s CPU      0.00s WALL (       1 calls)
     fftw         :     12.35s CPU     12.42s WALL (   32088 calls)
     interpolate  :      0.01s CPU      0.01s WALL (       1 calls)
     davcio       :      0.01s CPU      0.01s WALL (     208 calls)


     PWSCF        :     20.65s CPU     20.86s WALL


   This run was terminated on:  22:36:36   1Jul2021            

=------------------------------------------------------------------------------=
   JOB DONE.
=------------------------------------------------------------------------------=
