
     Program PWSCF v.6.7MaX starts on  1Jul2021 at 22:36:50 

     This program is part of the open-source Quantum ESPRESSO suite
     for quantum simulation of materials; please cite
         "P. Giannozzi et al., J. Phys.:Condens. Matter 21 395502 (2009);
         "P. Giannozzi et al., J. Phys.:Condens. Matter 29 465901 (2017);
          URL http://www.quantum-espresso.org", 
     in publications or presentations arising from this work. More details at
     http://www.quantum-espresso.org/quote

     Serial version
     Waiting for input...
     Reading input from standard input

     Current dimensions of program PWSCF are:
     Max number of different atomic species (ntypx) = 10
     Max number of k-points (npk) =  40000
     Max angular momentum in pseudopotentials (lmaxx) =  3

     Atomic positions and unit cell read from directory:
     /home/elena/AEP_DFT/DFT/tmp/bands/Pb.save/

     file Pb.pbe-dn-rrkjus_psl.1.0.0.UPF: wavefunction(s)  6S 5D renormalized

     G-vector sticks info
     --------------------
     sticks:   dense  smooth     PW     G-vecs:    dense   smooth      PW
     Sum        1639     823    253                43895    15593    2685



     bravais-lattice index     =            2
     lattice parameter (alat)  =       9.2226  a.u.
     unit-cell volume          =     196.1075 (a.u.)^3
     number of atoms/cell      =            1
     number of atomic types    =            1
     number of electrons       =        14.00
     number of Kohn-Sham states=            8
     kinetic-energy cutoff     =      70.0000  Ry
     charge density cutoff     =     560.0000  Ry
     Exchange-correlation= PBE
                           (   1   4   3   4   0   0   0)

     celldm(1)=   9.222558  celldm(2)=   0.000000  celldm(3)=   0.000000
     celldm(4)=   0.000000  celldm(5)=   0.000000  celldm(6)=   0.000000

     crystal axes: (cart. coord. in units of alat)
               a(1) = (  -0.500000   0.000000   0.500000 )  
               a(2) = (   0.000000   0.500000   0.500000 )  
               a(3) = (  -0.500000   0.500000   0.000000 )  

     reciprocal axes: (cart. coord. in units 2 pi/alat)
               b(1) = ( -1.000000 -1.000000  1.000000 )  
               b(2) = (  1.000000  1.000000  1.000000 )  
               b(3) = ( -1.000000  1.000000 -1.000000 )  


     PseudoPot. # 1 for Pb read from file:
     /home/elena/qe-6.7/pseudo/Pb.pbe-dn-rrkjus_psl.1.0.0.UPF
     MD5 check sum: 1cf8f5e18580e6a90a35f98a53d336de
     Pseudo is Ultrasoft + core correction, Zval = 14.0
     Generated using &quot;atomic&quot; code by A. Dal Corso  v.6.3
     Using radial grid of 1281 points,  6 beta functions with: 
                l(1) =   0
                l(2) =   0
                l(3) =   1
                l(4) =   1
                l(5) =   2
                l(6) =   2
     Q(r) pseudized with 0 coefficients 


     atomic species   valence    mass     pseudopotential
        Pb            14.00   207.20000     Pb( 1.00)

     48 Sym. Ops., with inversion, found


                                    s                        frac. trans.

      isym =  1     identity                                     

 cryst.   s( 1) = (     1          0          0      )
                  (     0          1          0      )
                  (     0          0          1      )

 cart.    s( 1) = (  1.0000000  0.0000000  0.0000000 )
                  (  0.0000000  1.0000000  0.0000000 )
                  (  0.0000000  0.0000000  1.0000000 )


      isym =  2     180 deg rotation - cart. axis [0,0,1]        

 cryst.   s( 2) = (     0          1         -1      )
                  (     1          0         -1      )
                  (     0          0         -1      )

 cart.    s( 2) = ( -1.0000000  0.0000000  0.0000000 )
                  (  0.0000000 -1.0000000  0.0000000 )
                  (  0.0000000  0.0000000  1.0000000 )


      isym =  3     180 deg rotation - cart. axis [0,1,0]        

 cryst.   s( 3) = (    -1          0          0      )
                  (    -1          0          1      )
                  (    -1          1          0      )

 cart.    s( 3) = ( -1.0000000  0.0000000  0.0000000 )
                  (  0.0000000  1.0000000  0.0000000 )
                  (  0.0000000  0.0000000 -1.0000000 )


      isym =  4     180 deg rotation - cart. axis [1,0,0]        

 cryst.   s( 4) = (     0         -1          1      )
                  (     0         -1          0      )
                  (     1         -1          0      )

 cart.    s( 4) = (  1.0000000  0.0000000  0.0000000 )
                  (  0.0000000 -1.0000000  0.0000000 )
                  (  0.0000000  0.0000000 -1.0000000 )


      isym =  5     180 deg rotation - cart. axis [1,1,0]        

 cryst.   s( 5) = (     0         -1          0      )
                  (    -1          0          0      )
                  (     0          0         -1      )

 cart.    s( 5) = (  0.0000000  1.0000000  0.0000000 )
                  (  1.0000000  0.0000000  0.0000000 )
                  (  0.0000000  0.0000000 -1.0000000 )


      isym =  6     180 deg rotation - cart. axis [1,-1,0]       

 cryst.   s( 6) = (    -1          0          1      )
                  (     0         -1          1      )
                  (     0          0          1      )

 cart.    s( 6) = (  0.0000000 -1.0000000  0.0000000 )
                  ( -1.0000000  0.0000000  0.0000000 )
                  (  0.0000000  0.0000000 -1.0000000 )


      isym =  7      90 deg rotation - cart. axis [0,0,-1]       

 cryst.   s( 7) = (     0          1          0      )
                  (     0          1         -1      )
                  (    -1          1          0      )

 cart.    s( 7) = (  0.0000000  1.0000000  0.0000000 )
                  ( -1.0000000  0.0000000  0.0000000 )
                  (  0.0000000  0.0000000  1.0000000 )


      isym =  8      90 deg rotation - cart. axis [0,0,1]        

 cryst.   s( 8) = (     1          0         -1      )
                  (     1          0          0      )
                  (     1         -1          0      )

 cart.    s( 8) = (  0.0000000 -1.0000000  0.0000000 )
                  (  1.0000000  0.0000000  0.0000000 )
                  (  0.0000000  0.0000000  1.0000000 )


      isym =  9     180 deg rotation - cart. axis [1,0,1]        

 cryst.   s( 9) = (    -1          0          0      )
                  (     0          0         -1      )
                  (     0         -1          0      )

 cart.    s( 9) = (  0.0000000  0.0000000  1.0000000 )
                  (  0.0000000 -1.0000000  0.0000000 )
                  (  1.0000000  0.0000000  0.0000000 )


      isym = 10     180 deg rotation - cart. axis [-1,0,1]       

 cryst.   s(10) = (     1          0          0      )
                  (     1         -1          0      )
                  (     1          0         -1      )

 cart.    s(10) = (  0.0000000  0.0000000 -1.0000000 )
                  (  0.0000000 -1.0000000  0.0000000 )
                  ( -1.0000000  0.0000000  0.0000000 )


      isym = 11      90 deg rotation - cart. axis [0,1,0]        

 cryst.   s(11) = (     0          1         -1      )
                  (    -1          1          0      )
                  (     0          1          0      )

 cart.    s(11) = (  0.0000000  0.0000000  1.0000000 )
                  (  0.0000000  1.0000000  0.0000000 )
                  ( -1.0000000  0.0000000  0.0000000 )


      isym = 12      90 deg rotation - cart. axis [0,-1,0]       

 cryst.   s(12) = (     0         -1          1      )
                  (     0          0          1      )
                  (    -1          0          1      )

 cart.    s(12) = (  0.0000000  0.0000000 -1.0000000 )
                  (  0.0000000  1.0000000  0.0000000 )
                  (  1.0000000  0.0000000  0.0000000 )


      isym = 13     180 deg rotation - cart. axis [0,1,1]        

 cryst.   s(13) = (    -1          1          0      )
                  (     0          1          0      )
                  (     0          1         -1      )

 cart.    s(13) = ( -1.0000000  0.0000000  0.0000000 )
                  (  0.0000000  0.0000000  1.0000000 )
                  (  0.0000000  1.0000000  0.0000000 )


      isym = 14     180 deg rotation - cart. axis [0,1,-1]       

 cryst.   s(14) = (     0          0         -1      )
                  (     0         -1          0      )
                  (    -1          0          0      )

 cart.    s(14) = ( -1.0000000  0.0000000  0.0000000 )
                  (  0.0000000  0.0000000 -1.0000000 )
                  (  0.0000000 -1.0000000  0.0000000 )


      isym = 15      90 deg rotation - cart. axis [-1,0,0]       

 cryst.   s(15) = (     0          0          1      )
                  (    -1          0          1      )
                  (     0         -1          1      )

 cart.    s(15) = (  1.0000000  0.0000000  0.0000000 )
                  (  0.0000000  0.0000000  1.0000000 )
                  (  0.0000000 -1.0000000  0.0000000 )


      isym = 16      90 deg rotation - cart. axis [1,0,0]        

 cryst.   s(16) = (     1         -1          0      )
                  (     1          0         -1      )
                  (     1          0          0      )

 cart.    s(16) = (  1.0000000  0.0000000  0.0000000 )
                  (  0.0000000  0.0000000 -1.0000000 )
                  (  0.0000000  1.0000000  0.0000000 )


      isym = 17     120 deg rotation - cart. axis [-1,-1,-1]     

 cryst.   s(17) = (    -1          0          1      )
                  (    -1          1          0      )
                  (    -1          0          0      )

 cart.    s(17) = (  0.0000000  1.0000000  0.0000000 )
                  (  0.0000000  0.0000000  1.0000000 )
                  (  1.0000000  0.0000000  0.0000000 )


      isym = 18     120 deg rotation - cart. axis [-1,1,1]       

 cryst.   s(18) = (     0          1          0      )
                  (     0          0          1      )
                  (     1          0          0      )

 cart.    s(18) = (  0.0000000 -1.0000000  0.0000000 )
                  (  0.0000000  0.0000000  1.0000000 )
                  ( -1.0000000  0.0000000  0.0000000 )


      isym = 19     120 deg rotation - cart. axis [1,1,-1]       

 cryst.   s(19) = (     1          0         -1      )
                  (     0          0         -1      )
                  (     0          1         -1      )

 cart.    s(19) = (  0.0000000  1.0000000  0.0000000 )
                  (  0.0000000  0.0000000 -1.0000000 )
                  ( -1.0000000  0.0000000  0.0000000 )


      isym = 20     120 deg rotation - cart. axis [1,-1,1]       

 cryst.   s(20) = (     0         -1          0      )
                  (     1         -1          0      )
                  (     0         -1          1      )

 cart.    s(20) = (  0.0000000 -1.0000000  0.0000000 )
                  (  0.0000000  0.0000000 -1.0000000 )
                  (  1.0000000  0.0000000  0.0000000 )


      isym = 21     120 deg rotation - cart. axis [1,1,1]        

 cryst.   s(21) = (     0          0         -1      )
                  (     0          1         -1      )
                  (     1          0         -1      )

 cart.    s(21) = (  0.0000000  0.0000000  1.0000000 )
                  (  1.0000000  0.0000000  0.0000000 )
                  (  0.0000000  1.0000000  0.0000000 )


      isym = 22     120 deg rotation - cart. axis [-1,1,-1]      

 cryst.   s(22) = (    -1          1          0      )
                  (    -1          0          0      )
                  (    -1          0          1      )

 cart.    s(22) = (  0.0000000  0.0000000  1.0000000 )
                  ( -1.0000000  0.0000000  0.0000000 )
                  (  0.0000000 -1.0000000  0.0000000 )


      isym = 23     120 deg rotation - cart. axis [1,-1,-1]      

 cryst.   s(23) = (     0          0          1      )
                  (     1          0          0      )
                  (     0          1          0      )

 cart.    s(23) = (  0.0000000  0.0000000 -1.0000000 )
                  ( -1.0000000  0.0000000  0.0000000 )
                  (  0.0000000  1.0000000  0.0000000 )


      isym = 24     120 deg rotation - cart. axis [-1,-1,1]      

 cryst.   s(24) = (     1         -1          0      )
                  (     0         -1          1      )
                  (     0         -1          0      )

 cart.    s(24) = (  0.0000000  0.0000000 -1.0000000 )
                  (  1.0000000  0.0000000  0.0000000 )
                  (  0.0000000 -1.0000000  0.0000000 )


      isym = 25     inversion                                    

 cryst.   s(25) = (    -1          0          0      )
                  (     0         -1          0      )
                  (     0          0         -1      )

 cart.    s(25) = ( -1.0000000  0.0000000  0.0000000 )
                  (  0.0000000 -1.0000000  0.0000000 )
                  (  0.0000000  0.0000000 -1.0000000 )


      isym = 26     inv. 180 deg rotation - cart. axis [0,0,1]   

 cryst.   s(26) = (     0         -1          1      )
                  (    -1          0          1      )
                  (     0          0          1      )

 cart.    s(26) = (  1.0000000  0.0000000  0.0000000 )
                  (  0.0000000  1.0000000  0.0000000 )
                  (  0.0000000  0.0000000 -1.0000000 )


      isym = 27     inv. 180 deg rotation - cart. axis [0,1,0]   

 cryst.   s(27) = (     1          0          0      )
                  (     1          0         -1      )
                  (     1         -1          0      )

 cart.    s(27) = (  1.0000000  0.0000000  0.0000000 )
                  (  0.0000000 -1.0000000  0.0000000 )
                  (  0.0000000  0.0000000  1.0000000 )


      isym = 28     inv. 180 deg rotation - cart. axis [1,0,0]   

 cryst.   s(28) = (     0          1         -1      )
                  (     0          1          0      )
                  (    -1          1          0      )

 cart.    s(28) = ( -1.0000000  0.0000000  0.0000000 )
                  (  0.0000000  1.0000000  0.0000000 )
                  (  0.0000000  0.0000000  1.0000000 )


      isym = 29     inv. 180 deg rotation - cart. axis [1,1,0]   

 cryst.   s(29) = (     0          1          0      )
                  (     1          0          0      )
                  (     0          0          1      )

 cart.    s(29) = (  0.0000000 -1.0000000  0.0000000 )
                  ( -1.0000000  0.0000000  0.0000000 )
                  (  0.0000000  0.0000000  1.0000000 )


      isym = 30     inv. 180 deg rotation - cart. axis [1,-1,0]  

 cryst.   s(30) = (     1          0         -1      )
                  (     0          1         -1      )
                  (     0          0         -1      )

 cart.    s(30) = (  0.0000000  1.0000000  0.0000000 )
                  (  1.0000000  0.0000000  0.0000000 )
                  (  0.0000000  0.0000000  1.0000000 )


      isym = 31     inv.  90 deg rotation - cart. axis [0,0,-1]  

 cryst.   s(31) = (     0         -1          0      )
                  (     0         -1          1      )
                  (     1         -1          0      )

 cart.    s(31) = (  0.0000000 -1.0000000  0.0000000 )
                  (  1.0000000  0.0000000  0.0000000 )
                  (  0.0000000  0.0000000 -1.0000000 )


      isym = 32     inv.  90 deg rotation - cart. axis [0,0,1]   

 cryst.   s(32) = (    -1          0          1      )
                  (    -1          0          0      )
                  (    -1          1          0      )

 cart.    s(32) = (  0.0000000  1.0000000  0.0000000 )
                  ( -1.0000000  0.0000000  0.0000000 )
                  (  0.0000000  0.0000000 -1.0000000 )


      isym = 33     inv. 180 deg rotation - cart. axis [1,0,1]   

 cryst.   s(33) = (     1          0          0      )
                  (     0          0          1      )
                  (     0          1          0      )

 cart.    s(33) = (  0.0000000  0.0000000 -1.0000000 )
                  (  0.0000000  1.0000000  0.0000000 )
                  ( -1.0000000  0.0000000  0.0000000 )


      isym = 34     inv. 180 deg rotation - cart. axis [-1,0,1]  

 cryst.   s(34) = (    -1          0          0      )
                  (    -1          1          0      )
                  (    -1          0          1      )

 cart.    s(34) = (  0.0000000  0.0000000  1.0000000 )
                  (  0.0000000  1.0000000  0.0000000 )
                  (  1.0000000  0.0000000  0.0000000 )


      isym = 35     inv.  90 deg rotation - cart. axis [0,1,0]   

 cryst.   s(35) = (     0         -1          1      )
                  (     1         -1          0      )
                  (     0         -1          0      )

 cart.    s(35) = (  0.0000000  0.0000000 -1.0000000 )
                  (  0.0000000 -1.0000000  0.0000000 )
                  (  1.0000000  0.0000000  0.0000000 )


      isym = 36     inv.  90 deg rotation - cart. axis [0,-1,0]  

 cryst.   s(36) = (     0          1         -1      )
                  (     0          0         -1      )
                  (     1          0         -1      )

 cart.    s(36) = (  0.0000000  0.0000000  1.0000000 )
                  (  0.0000000 -1.0000000  0.0000000 )
                  ( -1.0000000  0.0000000  0.0000000 )


      isym = 37     inv. 180 deg rotation - cart. axis [0,1,1]   

 cryst.   s(37) = (     1         -1          0      )
                  (     0         -1          0      )
                  (     0         -1          1      )

 cart.    s(37) = (  1.0000000  0.0000000  0.0000000 )
                  (  0.0000000  0.0000000 -1.0000000 )
                  (  0.0000000 -1.0000000  0.0000000 )


      isym = 38     inv. 180 deg rotation - cart. axis [0,1,-1]  

 cryst.   s(38) = (     0          0          1      )
                  (     0          1          0      )
                  (     1          0          0      )

 cart.    s(38) = (  1.0000000  0.0000000  0.0000000 )
                  (  0.0000000  0.0000000  1.0000000 )
                  (  0.0000000  1.0000000  0.0000000 )


      isym = 39     inv.  90 deg rotation - cart. axis [-1,0,0]  

 cryst.   s(39) = (     0          0         -1      )
                  (     1          0         -1      )
                  (     0          1         -1      )

 cart.    s(39) = ( -1.0000000  0.0000000  0.0000000 )
                  (  0.0000000  0.0000000 -1.0000000 )
                  (  0.0000000  1.0000000  0.0000000 )


      isym = 40     inv.  90 deg rotation - cart. axis [1,0,0]   

 cryst.   s(40) = (    -1          1          0      )
                  (    -1          0          1      )
                  (    -1          0          0      )

 cart.    s(40) = ( -1.0000000  0.0000000  0.0000000 )
                  (  0.0000000  0.0000000  1.0000000 )
                  (  0.0000000 -1.0000000  0.0000000 )


      isym = 41     inv. 120 deg rotation - cart. axis [-1,-1,-1]

 cryst.   s(41) = (     1          0         -1      )
                  (     1         -1          0      )
                  (     1          0          0      )

 cart.    s(41) = (  0.0000000 -1.0000000  0.0000000 )
                  (  0.0000000  0.0000000 -1.0000000 )
                  ( -1.0000000  0.0000000  0.0000000 )


      isym = 42     inv. 120 deg rotation - cart. axis [-1,1,1]  

 cryst.   s(42) = (     0         -1          0      )
                  (     0          0         -1      )
                  (    -1          0          0      )

 cart.    s(42) = (  0.0000000  1.0000000  0.0000000 )
                  (  0.0000000  0.0000000 -1.0000000 )
                  (  1.0000000  0.0000000  0.0000000 )


      isym = 43     inv. 120 deg rotation - cart. axis [1,1,-1]  

 cryst.   s(43) = (    -1          0          1      )
                  (     0          0          1      )
                  (     0         -1          1      )

 cart.    s(43) = (  0.0000000 -1.0000000  0.0000000 )
                  (  0.0000000  0.0000000  1.0000000 )
                  (  1.0000000  0.0000000  0.0000000 )


      isym = 44     inv. 120 deg rotation - cart. axis [1,-1,1]  

 cryst.   s(44) = (     0          1          0      )
                  (    -1          1          0      )
                  (     0          1         -1      )

 cart.    s(44) = (  0.0000000  1.0000000  0.0000000 )
                  (  0.0000000  0.0000000  1.0000000 )
                  ( -1.0000000  0.0000000  0.0000000 )


      isym = 45     inv. 120 deg rotation - cart. axis [1,1,1]   

 cryst.   s(45) = (     0          0          1      )
                  (     0         -1          1      )
                  (    -1          0          1      )

 cart.    s(45) = (  0.0000000  0.0000000 -1.0000000 )
                  ( -1.0000000  0.0000000  0.0000000 )
                  (  0.0000000 -1.0000000  0.0000000 )


      isym = 46     inv. 120 deg rotation - cart. axis [-1,1,-1] 

 cryst.   s(46) = (     1         -1          0      )
                  (     1          0          0      )
                  (     1          0         -1      )

 cart.    s(46) = (  0.0000000  0.0000000 -1.0000000 )
                  (  1.0000000  0.0000000  0.0000000 )
                  (  0.0000000  1.0000000  0.0000000 )


      isym = 47     inv. 120 deg rotation - cart. axis [1,-1,-1] 

 cryst.   s(47) = (     0          0         -1      )
                  (    -1          0          0      )
                  (     0         -1          0      )

 cart.    s(47) = (  0.0000000  0.0000000  1.0000000 )
                  (  1.0000000  0.0000000  0.0000000 )
                  (  0.0000000 -1.0000000  0.0000000 )


      isym = 48     inv. 120 deg rotation - cart. axis [-1,-1,1] 

 cryst.   s(48) = (    -1          1          0      )
                  (     0          1         -1      )
                  (     0          1          0      )

 cart.    s(48) = (  0.0000000  0.0000000  1.0000000 )
                  ( -1.0000000  0.0000000  0.0000000 )
                  (  0.0000000  1.0000000  0.0000000 )


     point group O_h (m-3m) 
     there are 10 classes
     the character table:

       E     8C3   3C2   6C4   6C2'  i     8S6   3s_h  6S4   6s_d 
A_1g   1.00  1.00  1.00  1.00  1.00  1.00  1.00  1.00  1.00  1.00
A_2g   1.00  1.00  1.00 -1.00 -1.00  1.00  1.00  1.00 -1.00 -1.00
E_g    2.00 -1.00  2.00  0.00  0.00  2.00 -1.00  2.00  0.00  0.00
T_1g   3.00  0.00 -1.00  1.00 -1.00  3.00  0.00 -1.00  1.00 -1.00
T_2g   3.00  0.00 -1.00 -1.00  1.00  3.00  0.00 -1.00 -1.00  1.00
A_1u   1.00  1.00  1.00  1.00  1.00 -1.00 -1.00 -1.00 -1.00 -1.00
A_2u   1.00  1.00  1.00 -1.00 -1.00 -1.00 -1.00 -1.00  1.00  1.00
E_u    2.00 -1.00  2.00  0.00  0.00 -2.00  1.00 -2.00  0.00  0.00
T_1u   3.00  0.00 -1.00  1.00 -1.00 -3.00  0.00  1.00 -1.00  1.00
T_2u   3.00  0.00 -1.00 -1.00  1.00 -3.00  0.00  1.00  1.00 -1.00

     the symmetry operations in each class and the name of the first element:

     E        1
          identity                                               
     8C3     17   19   20   18   24   21   22   23
          120 deg rotation - cart. axis [-1,-1,-1]               
     3C2      2    4    3
          180 deg rotation - cart. axis [0,0,1]                  
     6C4      7    8   15   16   12   11
           90 deg rotation - cart. axis [0,0,-1]                 
     6C2'     5    6   14   13   10    9
          180 deg rotation - cart. axis [1,1,0]                  
     i       25
          inversion                                              
     8S6     41   43   44   42   48   45   46   47
          inv. 120 deg rotation - cart. axis [-1,-1,-1]          
     3s_h    26   28   27
          inv. 180 deg rotation - cart. axis [0,0,1]             
     6S4     31   32   39   40   36   35
          inv.  90 deg rotation - cart. axis [0,0,-1]            
     6s_d    29   30   38   37   34   33
          inv. 180 deg rotation - cart. axis [1,1,0]             

   Cartesian axes

     site n.     atom                  positions (alat units)
         1           Pb  tau(   1) = (   0.0000000   0.0000000   0.0000000  )

   Crystallographic axes

     site n.     atom                  positions (cryst. coord.)
         1           Pb  tau(   1) = (  0.0000000  0.0000000  0.0000000  )

     number of k points=   145 (tetrahedron method)
                       cart. coord. in units 2pi/alat
        k(    1) = (   0.0000000   0.0000000   0.0000000), wk =   0.0004883
        k(    2) = (  -0.0625000   0.0625000  -0.0625000), wk =   0.0039062
        k(    3) = (  -0.1250000   0.1250000  -0.1250000), wk =   0.0039062
        k(    4) = (  -0.1875000   0.1875000  -0.1875000), wk =   0.0039062
        k(    5) = (  -0.2500000   0.2500000  -0.2500000), wk =   0.0039062
        k(    6) = (  -0.3125000   0.3125000  -0.3125000), wk =   0.0039062
        k(    7) = (  -0.3750000   0.3750000  -0.3750000), wk =   0.0039062
        k(    8) = (  -0.4375000   0.4375000  -0.4375000), wk =   0.0039062
        k(    9) = (   0.5000000  -0.5000000   0.5000000), wk =   0.0019531
        k(   10) = (   0.0000000   0.1250000   0.0000000), wk =   0.0029297
        k(   11) = (  -0.0625000   0.1875000  -0.0625000), wk =   0.0117188
        k(   12) = (  -0.1250000   0.2500000  -0.1250000), wk =   0.0117188
        k(   13) = (  -0.1875000   0.3125000  -0.1875000), wk =   0.0117188
        k(   14) = (  -0.2500000   0.3750000  -0.2500000), wk =   0.0117188
        k(   15) = (  -0.3125000   0.4375000  -0.3125000), wk =   0.0117188
        k(   16) = (  -0.3750000   0.5000000  -0.3750000), wk =   0.0117188
        k(   17) = (   0.5625000  -0.4375000   0.5625000), wk =   0.0117188
        k(   18) = (   0.5000000  -0.3750000   0.5000000), wk =   0.0117188
        k(   19) = (   0.4375000  -0.3125000   0.4375000), wk =   0.0117188
        k(   20) = (   0.3750000  -0.2500000   0.3750000), wk =   0.0117188
        k(   21) = (   0.3125000  -0.1875000   0.3125000), wk =   0.0117188
        k(   22) = (   0.2500000  -0.1250000   0.2500000), wk =   0.0117188
        k(   23) = (   0.1875000  -0.0625000   0.1875000), wk =   0.0117188
        k(   24) = (   0.1250000   0.0000000   0.1250000), wk =   0.0058594
        k(   25) = (   0.0000000   0.2500000   0.0000000), wk =   0.0029297
        k(   26) = (  -0.0625000   0.3125000  -0.0625000), wk =   0.0117188
        k(   27) = (  -0.1250000   0.3750000  -0.1250000), wk =   0.0117188
        k(   28) = (  -0.1875000   0.4375000  -0.1875000), wk =   0.0117188
        k(   29) = (  -0.2500000   0.5000000  -0.2500000), wk =   0.0117188
        k(   30) = (  -0.3125000   0.5625000  -0.3125000), wk =   0.0117188
        k(   31) = (   0.6250000  -0.3750000   0.6250000), wk =   0.0117188
        k(   32) = (   0.5625000  -0.3125000   0.5625000), wk =   0.0117188
        k(   33) = (   0.5000000  -0.2500000   0.5000000), wk =   0.0117188
        k(   34) = (   0.4375000  -0.1875000   0.4375000), wk =   0.0117188
        k(   35) = (   0.3750000  -0.1250000   0.3750000), wk =   0.0117188
        k(   36) = (   0.3125000  -0.0625000   0.3125000), wk =   0.0117188
        k(   37) = (   0.2500000   0.0000000   0.2500000), wk =   0.0058594
        k(   38) = (   0.0000000   0.3750000   0.0000000), wk =   0.0029297
        k(   39) = (  -0.0625000   0.4375000  -0.0625000), wk =   0.0117188
        k(   40) = (  -0.1250000   0.5000000  -0.1250000), wk =   0.0117188
        k(   41) = (  -0.1875000   0.5625000  -0.1875000), wk =   0.0117188
        k(   42) = (  -0.2500000   0.6250000  -0.2500000), wk =   0.0117188
        k(   43) = (   0.6875000  -0.3125000   0.6875000), wk =   0.0117188
        k(   44) = (   0.6250000  -0.2500000   0.6250000), wk =   0.0117188
        k(   45) = (   0.5625000  -0.1875000   0.5625000), wk =   0.0117188
        k(   46) = (   0.5000000  -0.1250000   0.5000000), wk =   0.0117188
        k(   47) = (   0.4375000  -0.0625000   0.4375000), wk =   0.0117188
        k(   48) = (   0.3750000   0.0000000   0.3750000), wk =   0.0058594
        k(   49) = (   0.0000000   0.5000000   0.0000000), wk =   0.0029297
        k(   50) = (  -0.0625000   0.5625000  -0.0625000), wk =   0.0117188
        k(   51) = (  -0.1250000   0.6250000  -0.1250000), wk =   0.0117188
        k(   52) = (  -0.1875000   0.6875000  -0.1875000), wk =   0.0117188
        k(   53) = (   0.7500000  -0.2500000   0.7500000), wk =   0.0117188
        k(   54) = (   0.6875000  -0.1875000   0.6875000), wk =   0.0117188
        k(   55) = (   0.6250000  -0.1250000   0.6250000), wk =   0.0117188
        k(   56) = (   0.5625000  -0.0625000   0.5625000), wk =   0.0117188
        k(   57) = (   0.5000000   0.0000000   0.5000000), wk =   0.0058594
        k(   58) = (   0.0000000   0.6250000   0.0000000), wk =   0.0029297
        k(   59) = (  -0.0625000   0.6875000  -0.0625000), wk =   0.0117188
        k(   60) = (  -0.1250000   0.7500000  -0.1250000), wk =   0.0117188
        k(   61) = (   0.8125000  -0.1875000   0.8125000), wk =   0.0117188
        k(   62) = (   0.7500000  -0.1250000   0.7500000), wk =   0.0117188
        k(   63) = (   0.6875000  -0.0625000   0.6875000), wk =   0.0117188
        k(   64) = (   0.6250000   0.0000000   0.6250000), wk =   0.0058594
        k(   65) = (   0.0000000   0.7500000   0.0000000), wk =   0.0029297
        k(   66) = (  -0.0625000   0.8125000  -0.0625000), wk =   0.0117188
        k(   67) = (   0.8750000  -0.1250000   0.8750000), wk =   0.0117188
        k(   68) = (   0.8125000  -0.0625000   0.8125000), wk =   0.0117188
        k(   69) = (   0.7500000   0.0000000   0.7500000), wk =   0.0058594
        k(   70) = (   0.0000000   0.8750000   0.0000000), wk =   0.0029297
        k(   71) = (   0.9375000  -0.0625000   0.9375000), wk =   0.0117188
        k(   72) = (   0.8750000   0.0000000   0.8750000), wk =   0.0058594
        k(   73) = (   0.0000000  -1.0000000   0.0000000), wk =   0.0014648
        k(   74) = (  -0.1250000   0.2500000   0.0000000), wk =   0.0117188
        k(   75) = (  -0.1875000   0.3125000  -0.0625000), wk =   0.0234375
        k(   76) = (  -0.2500000   0.3750000  -0.1250000), wk =   0.0234375
        k(   77) = (  -0.3125000   0.4375000  -0.1875000), wk =   0.0234375
        k(   78) = (  -0.3750000   0.5000000  -0.2500000), wk =   0.0234375
        k(   79) = (   0.5625000  -0.4375000   0.6875000), wk =   0.0234375
        k(   80) = (   0.5000000  -0.3750000   0.6250000), wk =   0.0117188
        k(   81) = (  -0.1250000   0.3750000   0.0000000), wk =   0.0117188
        k(   82) = (  -0.1875000   0.4375000  -0.0625000), wk =   0.0234375
        k(   83) = (  -0.2500000   0.5000000  -0.1250000), wk =   0.0234375
        k(   84) = (  -0.3125000   0.5625000  -0.1875000), wk =   0.0234375
        k(   85) = (   0.6250000  -0.3750000   0.7500000), wk =   0.0234375
        k(   86) = (   0.5625000  -0.3125000   0.6875000), wk =   0.0234375
        k(   87) = (   0.5000000  -0.2500000   0.6250000), wk =   0.0234375
        k(   88) = (   0.4375000  -0.1875000   0.5625000), wk =   0.0234375
        k(   89) = (   0.3750000  -0.1250000   0.5000000), wk =   0.0234375
        k(   90) = (   0.3125000  -0.0625000   0.4375000), wk =   0.0234375
        k(   91) = (   0.2500000   0.0000000   0.3750000), wk =   0.0117188
        k(   92) = (  -0.1250000   0.5000000   0.0000000), wk =   0.0117188
        k(   93) = (  -0.1875000   0.5625000  -0.0625000), wk =   0.0234375
        k(   94) = (  -0.2500000   0.6250000  -0.1250000), wk =   0.0234375
        k(   95) = (   0.6875000  -0.3125000   0.8125000), wk =   0.0234375
        k(   96) = (   0.6250000  -0.2500000   0.7500000), wk =   0.0234375
        k(   97) = (   0.5625000  -0.1875000   0.6875000), wk =   0.0234375
        k(   98) = (   0.5000000  -0.1250000   0.6250000), wk =   0.0234375
        k(   99) = (   0.4375000  -0.0625000   0.5625000), wk =   0.0234375
        k(  100) = (   0.3750000   0.0000000   0.5000000), wk =   0.0117188
        k(  101) = (  -0.1250000   0.6250000   0.0000000), wk =   0.0117188
        k(  102) = (  -0.1875000   0.6875000  -0.0625000), wk =   0.0234375
        k(  103) = (   0.7500000  -0.2500000   0.8750000), wk =   0.0234375
        k(  104) = (   0.6875000  -0.1875000   0.8125000), wk =   0.0234375
        k(  105) = (   0.6250000  -0.1250000   0.7500000), wk =   0.0234375
        k(  106) = (   0.5625000  -0.0625000   0.6875000), wk =   0.0234375
        k(  107) = (   0.5000000   0.0000000   0.6250000), wk =   0.0117188
        k(  108) = (  -0.1250000   0.7500000   0.0000000), wk =   0.0117188
        k(  109) = (   0.8125000  -0.1875000   0.9375000), wk =   0.0234375
        k(  110) = (   0.7500000  -0.1250000   0.8750000), wk =   0.0234375
        k(  111) = (   0.6875000  -0.0625000   0.8125000), wk =   0.0234375
        k(  112) = (   0.6250000   0.0000000   0.7500000), wk =   0.0117188
        k(  113) = (   0.8750000  -0.1250000   1.0000000), wk =   0.0117188
        k(  114) = (   0.8125000  -0.0625000   0.9375000), wk =   0.0234375
        k(  115) = (   0.7500000   0.0000000   0.8750000), wk =   0.0117188
        k(  116) = (  -0.1250000  -1.0000000   0.0000000), wk =   0.0058594
        k(  117) = (  -0.2500000   0.5000000   0.0000000), wk =   0.0117188
        k(  118) = (  -0.3125000   0.5625000  -0.0625000), wk =   0.0234375
        k(  119) = (   0.6250000  -0.3750000   0.8750000), wk =   0.0234375
        k(  120) = (   0.5625000  -0.3125000   0.8125000), wk =   0.0234375
        k(  121) = (   0.5000000  -0.2500000   0.7500000), wk =   0.0117188
        k(  122) = (  -0.2500000   0.6250000   0.0000000), wk =   0.0117188
        k(  123) = (   0.6875000  -0.3125000   0.9375000), wk =   0.0234375
        k(  124) = (   0.6250000  -0.2500000   0.8750000), wk =   0.0234375
        k(  125) = (   0.5625000  -0.1875000   0.8125000), wk =   0.0234375
        k(  126) = (   0.5000000  -0.1250000   0.7500000), wk =   0.0234375
        k(  127) = (   0.4375000  -0.0625000   0.6875000), wk =   0.0234375
        k(  128) = (   0.3750000   0.0000000   0.6250000), wk =   0.0117188
        k(  129) = (   0.7500000  -0.2500000   1.0000000), wk =   0.0117188
        k(  130) = (   0.6875000  -0.1875000   0.9375000), wk =   0.0234375
        k(  131) = (   0.6250000  -0.1250000   0.8750000), wk =   0.0234375
        k(  132) = (   0.5625000  -0.0625000   0.8125000), wk =   0.0234375
        k(  133) = (   0.5000000   0.0000000   0.7500000), wk =   0.0117188
        k(  134) = (   0.7500000  -0.1250000   1.0000000), wk =   0.0117188
        k(  135) = (   0.6875000  -0.0625000   0.9375000), wk =   0.0234375
        k(  136) = (   0.6250000   0.0000000   0.8750000), wk =   0.0117188
        k(  137) = (  -0.2500000  -1.0000000   0.0000000), wk =   0.0058594
        k(  138) = (   0.6250000  -0.2500000   1.0000000), wk =   0.0117188
        k(  139) = (   0.5625000  -0.1875000   0.9375000), wk =   0.0234375
        k(  140) = (   0.5000000  -0.1250000   0.8750000), wk =   0.0117188
        k(  141) = (   0.6250000  -0.1250000   1.0000000), wk =   0.0117188
        k(  142) = (   0.5625000  -0.0625000   0.9375000), wk =   0.0234375
        k(  143) = (   0.5000000   0.0000000   0.8750000), wk =   0.0117188
        k(  144) = (  -0.3750000  -1.0000000   0.0000000), wk =   0.0058594
        k(  145) = (  -0.5000000  -1.0000000   0.0000000), wk =   0.0029297

                       cryst. coord.
        k(    1) = (   0.0000000   0.0000000   0.0000000), wk =   0.0004883
        k(    2) = (   0.0000000   0.0000000   0.0625000), wk =   0.0039062
        k(    3) = (   0.0000000   0.0000000   0.1250000), wk =   0.0039062
        k(    4) = (   0.0000000   0.0000000   0.1875000), wk =   0.0039062
        k(    5) = (   0.0000000   0.0000000   0.2500000), wk =   0.0039062
        k(    6) = (   0.0000000   0.0000000   0.3125000), wk =   0.0039062
        k(    7) = (   0.0000000   0.0000000   0.3750000), wk =   0.0039062
        k(    8) = (   0.0000000   0.0000000   0.4375000), wk =   0.0039062
        k(    9) = (   0.0000000   0.0000000  -0.5000000), wk =   0.0019531
        k(   10) = (   0.0000000   0.0625000   0.0625000), wk =   0.0029297
        k(   11) = (   0.0000000   0.0625000   0.1250000), wk =   0.0117188
        k(   12) = (   0.0000000   0.0625000   0.1875000), wk =   0.0117188
        k(   13) = (   0.0000000   0.0625000   0.2500000), wk =   0.0117188
        k(   14) = (   0.0000000   0.0625000   0.3125000), wk =   0.0117188
        k(   15) = (   0.0000000   0.0625000   0.3750000), wk =   0.0117188
        k(   16) = (   0.0000000   0.0625000   0.4375000), wk =   0.0117188
        k(   17) = (   0.0000000   0.0625000  -0.5000000), wk =   0.0117188
        k(   18) = (   0.0000000   0.0625000  -0.4375000), wk =   0.0117188
        k(   19) = (   0.0000000   0.0625000  -0.3750000), wk =   0.0117188
        k(   20) = (   0.0000000   0.0625000  -0.3125000), wk =   0.0117188
        k(   21) = (   0.0000000   0.0625000  -0.2500000), wk =   0.0117188
        k(   22) = (   0.0000000   0.0625000  -0.1875000), wk =   0.0117188
        k(   23) = (   0.0000000   0.0625000  -0.1250000), wk =   0.0117188
        k(   24) = (   0.0000000   0.0625000  -0.0625000), wk =   0.0058594
        k(   25) = (   0.0000000   0.1250000   0.1250000), wk =   0.0029297
        k(   26) = (   0.0000000   0.1250000   0.1875000), wk =   0.0117188
        k(   27) = (   0.0000000   0.1250000   0.2500000), wk =   0.0117188
        k(   28) = (   0.0000000   0.1250000   0.3125000), wk =   0.0117188
        k(   29) = (   0.0000000   0.1250000   0.3750000), wk =   0.0117188
        k(   30) = (   0.0000000   0.1250000   0.4375000), wk =   0.0117188
        k(   31) = (   0.0000000   0.1250000  -0.5000000), wk =   0.0117188
        k(   32) = (   0.0000000   0.1250000  -0.4375000), wk =   0.0117188
        k(   33) = (   0.0000000   0.1250000  -0.3750000), wk =   0.0117188
        k(   34) = (   0.0000000   0.1250000  -0.3125000), wk =   0.0117188
        k(   35) = (   0.0000000   0.1250000  -0.2500000), wk =   0.0117188
        k(   36) = (   0.0000000   0.1250000  -0.1875000), wk =   0.0117188
        k(   37) = (   0.0000000   0.1250000  -0.1250000), wk =   0.0058594
        k(   38) = (   0.0000000   0.1875000   0.1875000), wk =   0.0029297
        k(   39) = (   0.0000000   0.1875000   0.2500000), wk =   0.0117188
        k(   40) = (   0.0000000   0.1875000   0.3125000), wk =   0.0117188
        k(   41) = (   0.0000000   0.1875000   0.3750000), wk =   0.0117188
        k(   42) = (   0.0000000   0.1875000   0.4375000), wk =   0.0117188
        k(   43) = (   0.0000000   0.1875000  -0.5000000), wk =   0.0117188
        k(   44) = (   0.0000000   0.1875000  -0.4375000), wk =   0.0117188
        k(   45) = (   0.0000000   0.1875000  -0.3750000), wk =   0.0117188
        k(   46) = (   0.0000000   0.1875000  -0.3125000), wk =   0.0117188
        k(   47) = (   0.0000000   0.1875000  -0.2500000), wk =   0.0117188
        k(   48) = (   0.0000000   0.1875000  -0.1875000), wk =   0.0058594
        k(   49) = (   0.0000000   0.2500000   0.2500000), wk =   0.0029297
        k(   50) = (   0.0000000   0.2500000   0.3125000), wk =   0.0117188
        k(   51) = (   0.0000000   0.2500000   0.3750000), wk =   0.0117188
        k(   52) = (   0.0000000   0.2500000   0.4375000), wk =   0.0117188
        k(   53) = (   0.0000000   0.2500000  -0.5000000), wk =   0.0117188
        k(   54) = (   0.0000000   0.2500000  -0.4375000), wk =   0.0117188
        k(   55) = (   0.0000000   0.2500000  -0.3750000), wk =   0.0117188
        k(   56) = (   0.0000000   0.2500000  -0.3125000), wk =   0.0117188
        k(   57) = (   0.0000000   0.2500000  -0.2500000), wk =   0.0058594
        k(   58) = (   0.0000000   0.3125000   0.3125000), wk =   0.0029297
        k(   59) = (   0.0000000   0.3125000   0.3750000), wk =   0.0117188
        k(   60) = (   0.0000000   0.3125000   0.4375000), wk =   0.0117188
        k(   61) = (   0.0000000   0.3125000  -0.5000000), wk =   0.0117188
        k(   62) = (   0.0000000   0.3125000  -0.4375000), wk =   0.0117188
        k(   63) = (   0.0000000   0.3125000  -0.3750000), wk =   0.0117188
        k(   64) = (   0.0000000   0.3125000  -0.3125000), wk =   0.0058594
        k(   65) = (   0.0000000   0.3750000   0.3750000), wk =   0.0029297
        k(   66) = (   0.0000000   0.3750000   0.4375000), wk =   0.0117188
        k(   67) = (   0.0000000   0.3750000  -0.5000000), wk =   0.0117188
        k(   68) = (   0.0000000   0.3750000  -0.4375000), wk =   0.0117188
        k(   69) = (   0.0000000   0.3750000  -0.3750000), wk =   0.0058594
        k(   70) = (   0.0000000   0.4375000   0.4375000), wk =   0.0029297
        k(   71) = (   0.0000000   0.4375000  -0.5000000), wk =   0.0117188
        k(   72) = (   0.0000000   0.4375000  -0.4375000), wk =   0.0058594
        k(   73) = (   0.0000000  -0.5000000  -0.5000000), wk =   0.0014648
        k(   74) = (   0.0625000   0.1250000   0.1875000), wk =   0.0117188
        k(   75) = (   0.0625000   0.1250000   0.2500000), wk =   0.0234375
        k(   76) = (   0.0625000   0.1250000   0.3125000), wk =   0.0234375
        k(   77) = (   0.0625000   0.1250000   0.3750000), wk =   0.0234375
        k(   78) = (   0.0625000   0.1250000   0.4375000), wk =   0.0234375
        k(   79) = (   0.0625000   0.1250000  -0.5000000), wk =   0.0234375
        k(   80) = (   0.0625000   0.1250000  -0.4375000), wk =   0.0117188
        k(   81) = (   0.0625000   0.1875000   0.2500000), wk =   0.0117188
        k(   82) = (   0.0625000   0.1875000   0.3125000), wk =   0.0234375
        k(   83) = (   0.0625000   0.1875000   0.3750000), wk =   0.0234375
        k(   84) = (   0.0625000   0.1875000   0.4375000), wk =   0.0234375
        k(   85) = (   0.0625000   0.1875000  -0.5000000), wk =   0.0234375
        k(   86) = (   0.0625000   0.1875000  -0.4375000), wk =   0.0234375
        k(   87) = (   0.0625000   0.1875000  -0.3750000), wk =   0.0234375
        k(   88) = (   0.0625000   0.1875000  -0.3125000), wk =   0.0234375
        k(   89) = (   0.0625000   0.1875000  -0.2500000), wk =   0.0234375
        k(   90) = (   0.0625000   0.1875000  -0.1875000), wk =   0.0234375
        k(   91) = (   0.0625000   0.1875000  -0.1250000), wk =   0.0117188
        k(   92) = (   0.0625000   0.2500000   0.3125000), wk =   0.0117188
        k(   93) = (   0.0625000   0.2500000   0.3750000), wk =   0.0234375
        k(   94) = (   0.0625000   0.2500000   0.4375000), wk =   0.0234375
        k(   95) = (   0.0625000   0.2500000  -0.5000000), wk =   0.0234375
        k(   96) = (   0.0625000   0.2500000  -0.4375000), wk =   0.0234375
        k(   97) = (   0.0625000   0.2500000  -0.3750000), wk =   0.0234375
        k(   98) = (   0.0625000   0.2500000  -0.3125000), wk =   0.0234375
        k(   99) = (   0.0625000   0.2500000  -0.2500000), wk =   0.0234375
        k(  100) = (   0.0625000   0.2500000  -0.1875000), wk =   0.0117188
        k(  101) = (   0.0625000   0.3125000   0.3750000), wk =   0.0117188
        k(  102) = (   0.0625000   0.3125000   0.4375000), wk =   0.0234375
        k(  103) = (   0.0625000   0.3125000  -0.5000000), wk =   0.0234375
        k(  104) = (   0.0625000   0.3125000  -0.4375000), wk =   0.0234375
        k(  105) = (   0.0625000   0.3125000  -0.3750000), wk =   0.0234375
        k(  106) = (   0.0625000   0.3125000  -0.3125000), wk =   0.0234375
        k(  107) = (   0.0625000   0.3125000  -0.2500000), wk =   0.0117188
        k(  108) = (   0.0625000   0.3750000   0.4375000), wk =   0.0117188
        k(  109) = (   0.0625000   0.3750000  -0.5000000), wk =   0.0234375
        k(  110) = (   0.0625000   0.3750000  -0.4375000), wk =   0.0234375
        k(  111) = (   0.0625000   0.3750000  -0.3750000), wk =   0.0234375
        k(  112) = (   0.0625000   0.3750000  -0.3125000), wk =   0.0117188
        k(  113) = (   0.0625000   0.4375000  -0.5000000), wk =   0.0117188
        k(  114) = (   0.0625000   0.4375000  -0.4375000), wk =   0.0234375
        k(  115) = (   0.0625000   0.4375000  -0.3750000), wk =   0.0117188
        k(  116) = (   0.0625000  -0.5000000  -0.4375000), wk =   0.0058594
        k(  117) = (   0.1250000   0.2500000   0.3750000), wk =   0.0117188
        k(  118) = (   0.1250000   0.2500000   0.4375000), wk =   0.0234375
        k(  119) = (   0.1250000   0.2500000  -0.5000000), wk =   0.0234375
        k(  120) = (   0.1250000   0.2500000  -0.4375000), wk =   0.0234375
        k(  121) = (   0.1250000   0.2500000  -0.3750000), wk =   0.0117188
        k(  122) = (   0.1250000   0.3125000   0.4375000), wk =   0.0117188
        k(  123) = (   0.1250000   0.3125000  -0.5000000), wk =   0.0234375
        k(  124) = (   0.1250000   0.3125000  -0.4375000), wk =   0.0234375
        k(  125) = (   0.1250000   0.3125000  -0.3750000), wk =   0.0234375
        k(  126) = (   0.1250000   0.3125000  -0.3125000), wk =   0.0234375
        k(  127) = (   0.1250000   0.3125000  -0.2500000), wk =   0.0234375
        k(  128) = (   0.1250000   0.3125000  -0.1875000), wk =   0.0117188
        k(  129) = (   0.1250000   0.3750000  -0.5000000), wk =   0.0117188
        k(  130) = (   0.1250000   0.3750000  -0.4375000), wk =   0.0234375
        k(  131) = (   0.1250000   0.3750000  -0.3750000), wk =   0.0234375
        k(  132) = (   0.1250000   0.3750000  -0.3125000), wk =   0.0234375
        k(  133) = (   0.1250000   0.3750000  -0.2500000), wk =   0.0117188
        k(  134) = (   0.1250000   0.4375000  -0.4375000), wk =   0.0117188
        k(  135) = (   0.1250000   0.4375000  -0.3750000), wk =   0.0234375
        k(  136) = (   0.1250000   0.4375000  -0.3125000), wk =   0.0117188
        k(  137) = (   0.1250000  -0.5000000  -0.3750000), wk =   0.0058594
        k(  138) = (   0.1875000   0.3750000  -0.4375000), wk =   0.0117188
        k(  139) = (   0.1875000   0.3750000  -0.3750000), wk =   0.0234375
        k(  140) = (   0.1875000   0.3750000  -0.3125000), wk =   0.0117188
        k(  141) = (   0.1875000   0.4375000  -0.3750000), wk =   0.0117188
        k(  142) = (   0.1875000   0.4375000  -0.3125000), wk =   0.0234375
        k(  143) = (   0.1875000   0.4375000  -0.2500000), wk =   0.0117188
        k(  144) = (   0.1875000  -0.5000000  -0.3125000), wk =   0.0058594
        k(  145) = (   0.2500000  -0.5000000  -0.2500000), wk =   0.0029297

     Dense  grid:    43895 G-vectors     FFT dimensions: (  50,  50,  50)

     Smooth grid:    15593 G-vectors     FFT dimensions: (  36,  36,  36)

     Dynamical RAM for                 wfc:       0.24 MB

     Dynamical RAM for     wfc (w. buffer):       0.24 MB

     Dynamical RAM for           str. fact:       0.67 MB

     Dynamical RAM for           local pot:       0.00 MB

     Dynamical RAM for          nlocal pot:       0.53 MB

     Dynamical RAM for                qrad:       1.90 MB

     Dynamical RAM for          rho,v,vnew:       4.87 MB

     Dynamical RAM for           G-vectors:       2.63 MB

     Dynamical RAM for          h,s,v(r/c):       0.01 MB

     Dynamical RAM for          <psi|beta>:       0.00 MB

     Dynamical RAM for                 psi:       0.47 MB

     Dynamical RAM for                hpsi:       0.47 MB

     Dynamical RAM for                spsi:       0.47 MB

     Dynamical RAM for      wfcinit/wfcrot:       0.53 MB

     Dynamical RAM for           addusdens:     125.25 MB

     Estimated static dynamical RAM per process >      16.95 MB

     Estimated max dynamical RAM per process >     142.20 MB

     The potential is recalculated from file :
     /home/elena/AEP_DFT/DFT/tmp/bands/Pb.save/charge-density

     Starting wfcs are    9 randomized atomic wfcs

     Band Structure Calculation
     Davidson diagonalization with overlap

     Computing kpt #:     1  of   145
     total cpu time spent up to now is        1.6 secs

     Computing kpt #:     2  of   145
     total cpu time spent up to now is        1.8 secs

     Computing kpt #:     3  of   145
     total cpu time spent up to now is        2.0 secs

     Computing kpt #:     4  of   145
     total cpu time spent up to now is        2.2 secs

     Computing kpt #:     5  of   145
     total cpu time spent up to now is        2.4 secs

     Computing kpt #:     6  of   145
     total cpu time spent up to now is        2.6 secs

     Computing kpt #:     7  of   145
     total cpu time spent up to now is        2.7 secs

     Computing kpt #:     8  of   145
     total cpu time spent up to now is        2.9 secs

     Computing kpt #:     9  of   145
     total cpu time spent up to now is        3.1 secs

     Computing kpt #:    10  of   145
     total cpu time spent up to now is        3.3 secs

     Computing kpt #:    11  of   145
     total cpu time spent up to now is        3.5 secs

     Computing kpt #:    12  of   145
     total cpu time spent up to now is        3.8 secs

     Computing kpt #:    13  of   145
     total cpu time spent up to now is        4.0 secs

     Computing kpt #:    14  of   145
     total cpu time spent up to now is        4.2 secs

     Computing kpt #:    15  of   145
     total cpu time spent up to now is        4.4 secs

     Computing kpt #:    16  of   145
     total cpu time spent up to now is        4.6 secs

     Computing kpt #:    17  of   145
     total cpu time spent up to now is        4.8 secs

     Computing kpt #:    18  of   145
     total cpu time spent up to now is        5.0 secs

     Computing kpt #:    19  of   145
     total cpu time spent up to now is        5.2 secs

     Computing kpt #:    20  of   145
     total cpu time spent up to now is        5.4 secs

     Computing kpt #:    21  of   145
     total cpu time spent up to now is        5.6 secs

     Computing kpt #:    22  of   145
     total cpu time spent up to now is        5.9 secs

     Computing kpt #:    23  of   145
     total cpu time spent up to now is        6.1 secs

     Computing kpt #:    24  of   145
     total cpu time spent up to now is        6.4 secs

     Computing kpt #:    25  of   145
     total cpu time spent up to now is        6.6 secs

     Computing kpt #:    26  of   145
     total cpu time spent up to now is        6.8 secs

     Computing kpt #:    27  of   145
     total cpu time spent up to now is        7.0 secs

     Computing kpt #:    28  of   145
     total cpu time spent up to now is        7.2 secs

     Computing kpt #:    29  of   145
     total cpu time spent up to now is        7.5 secs

     Computing kpt #:    30  of   145
     total cpu time spent up to now is        7.7 secs

     Computing kpt #:    31  of   145
     total cpu time spent up to now is        7.9 secs

     Computing kpt #:    32  of   145
     total cpu time spent up to now is        8.1 secs

     Computing kpt #:    33  of   145
     total cpu time spent up to now is        8.3 secs

     Computing kpt #:    34  of   145
     total cpu time spent up to now is        8.4 secs

     Computing kpt #:    35  of   145
     total cpu time spent up to now is        8.6 secs

     Computing kpt #:    36  of   145
     total cpu time spent up to now is        8.8 secs

     Computing kpt #:    37  of   145
     total cpu time spent up to now is        9.0 secs

     Computing kpt #:    38  of   145
     total cpu time spent up to now is        9.2 secs

     Computing kpt #:    39  of   145
     total cpu time spent up to now is        9.4 secs

     Computing kpt #:    40  of   145
     total cpu time spent up to now is        9.7 secs

     Computing kpt #:    41  of   145
     total cpu time spent up to now is        9.9 secs

     Computing kpt #:    42  of   145
     total cpu time spent up to now is       10.1 secs

     Computing kpt #:    43  of   145
     total cpu time spent up to now is       10.3 secs

     Computing kpt #:    44  of   145
     total cpu time spent up to now is       10.5 secs

     Computing kpt #:    45  of   145
     total cpu time spent up to now is       10.7 secs

     Computing kpt #:    46  of   145
     total cpu time spent up to now is       10.8 secs

     Computing kpt #:    47  of   145
     total cpu time spent up to now is       11.0 secs

     Computing kpt #:    48  of   145
     total cpu time spent up to now is       11.2 secs

     Computing kpt #:    49  of   145
     total cpu time spent up to now is       11.4 secs

     Computing kpt #:    50  of   145
     total cpu time spent up to now is       11.6 secs

     Computing kpt #:    51  of   145
     total cpu time spent up to now is       11.8 secs

     Computing kpt #:    52  of   145
     total cpu time spent up to now is       12.0 secs

     Computing kpt #:    53  of   145
     total cpu time spent up to now is       12.2 secs

     Computing kpt #:    54  of   145
     total cpu time spent up to now is       12.4 secs

     Computing kpt #:    55  of   145
     total cpu time spent up to now is       12.5 secs

     Computing kpt #:    56  of   145
     total cpu time spent up to now is       12.7 secs

     Computing kpt #:    57  of   145
     total cpu time spent up to now is       12.8 secs

     Computing kpt #:    58  of   145
     total cpu time spent up to now is       13.0 secs

     Computing kpt #:    59  of   145
     total cpu time spent up to now is       13.2 secs

     Computing kpt #:    60  of   145
     total cpu time spent up to now is       13.4 secs

     Computing kpt #:    61  of   145
     total cpu time spent up to now is       13.6 secs

     Computing kpt #:    62  of   145
     total cpu time spent up to now is       13.7 secs

     Computing kpt #:    63  of   145
     total cpu time spent up to now is       13.9 secs

     Computing kpt #:    64  of   145
     total cpu time spent up to now is       14.1 secs

     Computing kpt #:    65  of   145
     total cpu time spent up to now is       14.2 secs

     Computing kpt #:    66  of   145
     total cpu time spent up to now is       14.4 secs

     Computing kpt #:    67  of   145
     total cpu time spent up to now is       14.6 secs

     Computing kpt #:    68  of   145
     total cpu time spent up to now is       14.8 secs

     Computing kpt #:    69  of   145
     total cpu time spent up to now is       14.9 secs

     Computing kpt #:    70  of   145
     total cpu time spent up to now is       15.1 secs

     Computing kpt #:    71  of   145
     total cpu time spent up to now is       15.3 secs

     Computing kpt #:    72  of   145
     total cpu time spent up to now is       15.5 secs

     Computing kpt #:    73  of   145
     total cpu time spent up to now is       15.6 secs

     Computing kpt #:    74  of   145
     total cpu time spent up to now is       15.8 secs

     Computing kpt #:    75  of   145
     total cpu time spent up to now is       16.0 secs

     Computing kpt #:    76  of   145
     total cpu time spent up to now is       16.2 secs

     Computing kpt #:    77  of   145
     total cpu time spent up to now is       16.4 secs

     Computing kpt #:    78  of   145
     total cpu time spent up to now is       16.6 secs

     Computing kpt #:    79  of   145
     total cpu time spent up to now is       16.8 secs

     Computing kpt #:    80  of   145
     total cpu time spent up to now is       17.0 secs

     Computing kpt #:    81  of   145
     total cpu time spent up to now is       17.1 secs

     Computing kpt #:    82  of   145
     total cpu time spent up to now is       17.3 secs

     Computing kpt #:    83  of   145
     total cpu time spent up to now is       17.5 secs

     Computing kpt #:    84  of   145
     total cpu time spent up to now is       17.7 secs

     Computing kpt #:    85  of   145
     total cpu time spent up to now is       17.9 secs

     Computing kpt #:    86  of   145
     total cpu time spent up to now is       18.1 secs

     Computing kpt #:    87  of   145
     total cpu time spent up to now is       18.3 secs

     Computing kpt #:    88  of   145
     total cpu time spent up to now is       18.4 secs

     Computing kpt #:    89  of   145
     total cpu time spent up to now is       18.6 secs

     Computing kpt #:    90  of   145
     total cpu time spent up to now is       18.8 secs

     Computing kpt #:    91  of   145
     total cpu time spent up to now is       19.0 secs

     Computing kpt #:    92  of   145
     total cpu time spent up to now is       19.2 secs

     Computing kpt #:    93  of   145
     total cpu time spent up to now is       19.4 secs

     Computing kpt #:    94  of   145
     total cpu time spent up to now is       19.6 secs

     Computing kpt #:    95  of   145
     total cpu time spent up to now is       19.7 secs

     Computing kpt #:    96  of   145
     total cpu time spent up to now is       19.9 secs

     Computing kpt #:    97  of   145
     total cpu time spent up to now is       20.1 secs

     Computing kpt #:    98  of   145
     total cpu time spent up to now is       20.3 secs

     Computing kpt #:    99  of   145
     total cpu time spent up to now is       20.5 secs

     Computing kpt #:   100  of   145
     total cpu time spent up to now is       20.7 secs

     Computing kpt #:   101  of   145
     total cpu time spent up to now is       20.9 secs

     Computing kpt #:   102  of   145
     total cpu time spent up to now is       21.1 secs

     Computing kpt #:   103  of   145
     total cpu time spent up to now is       21.3 secs

     Computing kpt #:   104  of   145
     total cpu time spent up to now is       21.5 secs

     Computing kpt #:   105  of   145
     total cpu time spent up to now is       21.7 secs

     Computing kpt #:   106  of   145
     total cpu time spent up to now is       21.8 secs

     Computing kpt #:   107  of   145
     total cpu time spent up to now is       22.0 secs

     Computing kpt #:   108  of   145
     total cpu time spent up to now is       22.2 secs

     Computing kpt #:   109  of   145
     total cpu time spent up to now is       22.4 secs

     Computing kpt #:   110  of   145
     total cpu time spent up to now is       22.6 secs

     Computing kpt #:   111  of   145
     total cpu time spent up to now is       22.8 secs

     Computing kpt #:   112  of   145
     total cpu time spent up to now is       22.9 secs

     Computing kpt #:   113  of   145
     total cpu time spent up to now is       23.2 secs

     Computing kpt #:   114  of   145
     total cpu time spent up to now is       23.4 secs

     Computing kpt #:   115  of   145
     total cpu time spent up to now is       23.6 secs

     Computing kpt #:   116  of   145
     total cpu time spent up to now is       23.8 secs

     Computing kpt #:   117  of   145
     total cpu time spent up to now is       24.1 secs

     Computing kpt #:   118  of   145
     total cpu time spent up to now is       24.3 secs

     Computing kpt #:   119  of   145
     total cpu time spent up to now is       24.5 secs

     Computing kpt #:   120  of   145
     total cpu time spent up to now is       24.6 secs

     Computing kpt #:   121  of   145
     total cpu time spent up to now is       24.8 secs

     Computing kpt #:   122  of   145
     total cpu time spent up to now is       25.0 secs

     Computing kpt #:   123  of   145
     total cpu time spent up to now is       25.2 secs

     Computing kpt #:   124  of   145
     total cpu time spent up to now is       25.4 secs

     Computing kpt #:   125  of   145
     total cpu time spent up to now is       25.5 secs

     Computing kpt #:   126  of   145
     total cpu time spent up to now is       25.7 secs

     Computing kpt #:   127  of   145
     total cpu time spent up to now is       25.9 secs

     Computing kpt #:   128  of   145
     total cpu time spent up to now is       26.1 secs

     Computing kpt #:   129  of   145
     total cpu time spent up to now is       26.2 secs

     Computing kpt #:   130  of   145
     total cpu time spent up to now is       26.4 secs

     Computing kpt #:   131  of   145
     total cpu time spent up to now is       26.6 secs

     Computing kpt #:   132  of   145
     total cpu time spent up to now is       26.8 secs

     Computing kpt #:   133  of   145
     total cpu time spent up to now is       27.0 secs

     Computing kpt #:   134  of   145
     total cpu time spent up to now is       27.2 secs

     Computing kpt #:   135  of   145
     total cpu time spent up to now is       27.3 secs

     Computing kpt #:   136  of   145
     total cpu time spent up to now is       27.5 secs

     Computing kpt #:   137  of   145
     total cpu time spent up to now is       27.7 secs

     Computing kpt #:   138  of   145
     total cpu time spent up to now is       27.9 secs

     Computing kpt #:   139  of   145
     total cpu time spent up to now is       28.1 secs

     Computing kpt #:   140  of   145
     total cpu time spent up to now is       28.3 secs

     Computing kpt #:   141  of   145
     total cpu time spent up to now is       28.5 secs

     Computing kpt #:   142  of   145
     total cpu time spent up to now is       28.7 secs

     Computing kpt #:   143  of   145
     total cpu time spent up to now is       28.9 secs

     Computing kpt #:   144  of   145
     total cpu time spent up to now is       29.1 secs

     Computing kpt #:   145  of   145
     total cpu time spent up to now is       29.2 secs

     ethr =  7.14E-12,  avg # of iterations = 27.5

     Warning: ef = 11.945886 is above the highest band at k-point  56
              e  =  11.876404

     Warning: ef = 11.945886 is above the highest band at k-point  62
              e  =  11.384586

     Warning: ef = 11.945886 is above the highest band at k-point  63
              e  =  10.735646

     Warning: ef = 11.945886 is above the highest band at k-point  64
              e  =  10.693509

     Warning: ef = 11.945886 is above the highest band at k-point  68
              e  =  11.507948

     Warning: ef = 11.945886 is above the highest band at k-point  69
              e  =  10.566039

     Warning: ef = 11.945886 is above the highest band at k-point 105
              e  =  11.528051

     Warning: ef = 11.945886 is above the highest band at k-point 106
              e  =  11.222492

     Warning: ef = 11.945886 is above the highest band at k-point 107
              e  =  11.509947

     Warning: ef = 11.945886 is above the highest band at k-point 110
              e  =  11.824980

     Warning: ef = 11.945886 is above the highest band at k-point 111
              e  =  10.841740

     Warning: ef = 11.945886 is above the highest band at k-point 112
              e  =  10.083998

     Warning: ef = 11.945886 is above the highest band at k-point 115
              e  =  11.454634

     Warning: ef = 11.945886 is above the highest band at k-point 131
              e  =  11.380406

     Warning: ef = 11.945886 is above the highest band at k-point 132
              e  =  10.828657

     Warning: ef = 11.945886 is above the highest band at k-point 133
              e  =  10.910669

     Warning: ef = 11.945886 is above the highest band at k-point 135
              e  =  11.629904

     Warning: ef = 11.945886 is above the highest band at k-point 136
              e  =  10.683078

     Warning: ef = 11.945886 is above the highest band at k-point 138
              e  =  11.904001

     Warning: ef = 11.945886 is above the highest band at k-point 139
              e  =  11.402196

     Warning: ef = 11.945886 is above the highest band at k-point 140
              e  =  11.285735

     Warning: ef = 11.945886 is above the highest band at k-point 141
              e  =  11.539261

     Warning: ef = 11.945886 is above the highest band at k-point 142
              e  =  10.848943

     Warning: ef = 11.945886 is above the highest band at k-point 143
              e  =  10.541086

     Warning: ef = 11.945886 is above the highest band at k-point 144
              e  =  11.416033

     Warning: ef = 11.945886 is above the highest band at k-point 145
              e  =  10.416157

     total cpu time spent up to now is       29.4 secs

     End of band structure calculation

          k = 0.0000 0.0000 0.0000 (  1917 PWs)   bands (ev):

    -5.2362  -5.2362  -5.2362  -5.0771  -5.0771  -0.1825  19.6427  19.6427

     occupation numbers 
     1.0000   1.0000   1.0000   1.0000   1.0000   1.0000   0.0000   0.0000

          k =-0.0625 0.0625-0.0625 (  1938 PWs)   bands (ev):

    -5.2366  -5.2298  -5.2298  -5.0779  -5.0779  -0.1040  18.6451  19.5392

     occupation numbers 
     1.0000   1.0000   1.0000   1.0000   1.0000   1.0000   0.0000   0.0000

          k =-0.1250 0.1250-0.1250 (  1946 PWs)   bands (ev):

    -5.2382  -5.2138  -5.2138  -5.0768  -5.0768   0.1322  16.7206  19.2695

     occupation numbers 
     1.0000   1.0000   1.0000   1.0000   1.0000   1.0000   0.0000   0.0000

          k =-0.1875 0.1875-0.1875 (  1937 PWs)   bands (ev):

    -5.2419  -5.1991  -5.1991  -5.0657  -5.0657   0.5264  14.6729  18.9150

     occupation numbers 
     1.0000   1.0000   1.0000   1.0000   1.0000   1.0000  -0.0058   0.0000

          k =-0.2500 0.2500-0.2500 (  1949 PWs)   bands (ev):

    -5.2487  -5.1963  -5.1963  -5.0377  -5.0377   1.0754  12.6988  18.5454

     occupation numbers 
     1.0000   1.0000   1.0000   1.0000   1.0000   1.0000   0.0734   0.0000

          k =-0.3125 0.3125-0.3125 (  1931 PWs)   bands (ev):

    -5.2577  -5.2035  -5.2035  -4.9987  -4.9987   1.7657  10.8713  18.2102

     occupation numbers 
     1.0000   1.0000   1.0000   1.0000   1.0000   1.0000   0.9807   0.0000

          k =-0.3750 0.3750-0.3750 (  1925 PWs)   bands (ev):

    -5.2668  -5.2137  -5.2137  -4.9612  -4.9612   2.5565   9.2566  17.9449

     occupation numbers 
     1.0000   1.0000   1.0000   1.0000   1.0000   1.0000   1.0009   0.0000

          k =-0.4375 0.4375-0.4375 (  1931 PWs)   bands (ev):

    -5.2738  -5.2217  -5.2217  -4.9349  -4.9349   3.3229   7.9919  17.7748

     occupation numbers 
     1.0000   1.0000   1.0000   1.0000   1.0000   1.0000   1.0000   0.0000

          k = 0.5000-0.5000 0.5000 (  1946 PWs)   bands (ev):

    -5.2765  -5.2246  -5.2246  -4.9255  -4.9255   3.6995   7.4487  17.7163

     occupation numbers 
     1.0000   1.0000   1.0000   1.0000   1.0000   1.0000   1.0000   0.0000

          k = 0.0000 0.1250 0.0000 (  1933 PWs)   bands (ev):

    -5.2435  -5.2239  -5.2239  -5.0846  -5.0719  -0.0778  18.9657  19.1631

     occupation numbers 
     1.0000   1.0000   1.0000   1.0000   1.0000   1.0000   0.0000   0.0000

          k =-0.0625 0.1875-0.0625 (  1942 PWs)   bands (ev):

    -5.2483  -5.2090  -5.2074  -5.0917  -5.0661   0.1058  17.3658  18.7145

     occupation numbers 
     1.0000   1.0000   1.0000   1.0000   1.0000   1.0000   0.0000   0.0000

          k =-0.1250 0.2500-0.1250 (  1946 PWs)   bands (ev):

    -5.2502  -5.1941  -5.1901  -5.0920  -5.0536   0.4473  15.3668  18.2748

     occupation numbers 
     1.0000   1.0000   1.0000   1.0000   1.0000   1.0000   0.0000   0.0000

          k =-0.1875 0.3125-0.1875 (  1940 PWs)   bands (ev):

    -5.2526  -5.1903  -5.1831  -5.0740  -5.0273   0.9451  13.3796  17.8940

     occupation numbers 
     1.0000   1.0000   1.0000   1.0000   1.0000   1.0000  -0.0300   0.0000

          k =-0.2500 0.3750-0.2500 (  1940 PWs)   bands (ev):

    -5.2570  -5.1988  -5.1877  -5.0385  -4.9910   1.5895  11.5113  17.6038

     occupation numbers 
     1.0000   1.0000   1.0000   1.0000   1.0000   1.0000   0.7917   0.0000

          k =-0.3125 0.4375-0.3125 (  1942 PWs)   bands (ev):

    -5.2626  -5.2111  -5.1977  -4.9978  -4.9560   2.3516   9.8276  17.4262

     occupation numbers 
     1.0000   1.0000   1.0000   1.0000   1.0000   1.0000   1.0190   0.0000

          k =-0.3750 0.5000-0.3750 (  1934 PWs)   bands (ev):

    -5.2673  -5.2211  -5.2074  -4.9624  -4.9318   3.1455   8.4314  17.3074

     occupation numbers 
     1.0000   1.0000   1.0000   1.0000   1.0000   1.0000   1.0000   0.0000

          k = 0.5625-0.4375 0.5625 (  1939 PWs)   bands (ev):

    -5.2692  -5.2260  -5.2133  -4.9399  -4.9248   3.7057   7.5964  17.0294

     occupation numbers 
     1.0000   1.0000   1.0000   1.0000   1.0000   1.0000   1.0000   0.0000

          k = 0.5000-0.3750 0.5000 (  1937 PWs)   bands (ev):

    -5.2675  -5.2245  -5.2137  -4.9368  -4.9343   3.5743   7.7834  16.8659

     occupation numbers 
     1.0000   1.0000   1.0000   1.0000   1.0000   1.0000   1.0000   0.0000

          k = 0.4375-0.3125 0.4375 (  1935 PWs)   bands (ev):

    -5.2624  -5.2171  -5.2084  -4.9659  -4.9463   2.8871   8.8560  16.8295

     occupation numbers 
     1.0000   1.0000   1.0000   1.0000   1.0000   1.0000   1.0000   0.0000

          k = 0.3750-0.2500 0.3750 (  1928 PWs)   bands (ev):

    -5.2557  -5.2061  -5.1990  -5.0066  -4.9726   2.0874  10.3657  16.9223

     occupation numbers 
     1.0000   1.0000   1.0000   1.0000   1.0000   1.0000   1.0380   0.0000

          k = 0.3125-0.1875 0.3125 (  1943 PWs)   bands (ev):

    -5.2493  -5.1957  -5.1899  -5.0497  -5.0067   1.3594  12.1170  17.1393

     occupation numbers 
     1.0000   1.0000   1.0000   1.0000   1.0000   1.0000   0.3460   0.0000

          k = 0.2500-0.1250 0.2500 (  1940 PWs)   bands (ev):

    -5.2447  -5.1916  -5.1896  -5.0809  -5.0389   0.7622  14.0259  17.4730

     occupation numbers 
     1.0000   1.0000   1.0000   1.0000   1.0000   1.0000  -0.0276   0.0000

          k = 0.1875-0.0625 0.1875 (  1948 PWs)   bands (ev):

    -5.2421  -5.2042  -5.1990  -5.0899  -5.0608   0.3160  16.0069  17.9248

     occupation numbers 
     1.0000   1.0000   1.0000   1.0000   1.0000   1.0000   0.0000   0.0000

          k = 0.1250 0.0000 0.1250 (  1931 PWs)   bands (ev):

    -5.2398  -5.2219  -5.2150  -5.0851  -5.0713   0.0271  17.7747  18.6043

     occupation numbers 
     1.0000   1.0000   1.0000   1.0000   1.0000   1.0000   0.0000   0.0000

          k = 0.0000 0.2500 0.0000 (  1949 PWs)   bands (ev):

    -5.2641  -5.1882  -5.1882  -5.1070  -5.0570   0.2368  17.6133  18.1378

     occupation numbers 
     1.0000   1.0000   1.0000   1.0000   1.0000   1.0000   0.0000   0.0000

          k =-0.0625 0.3125-0.0625 (  1947 PWs)   bands (ev):

    -5.2735  -5.1680  -5.1655  -5.1175  -5.0442   0.5255  16.0119  17.6152

     occupation numbers 
     1.0000   1.0000   1.0000   1.0000   1.0000   1.0000   0.0000   0.0000

          k =-0.1250 0.3750-0.1250 (  1944 PWs)   bands (ev):

    -5.2761  -5.1678  -5.1524  -5.1051  -5.0198   0.9707  14.0980  17.1885

     occupation numbers 
     1.0000   1.0000   1.0000   1.0000   1.0000   1.0000  -0.0228   0.0000

          k =-0.1875 0.4375-0.1875 (  1943 PWs)   bands (ev):

    -5.2751  -5.1818  -5.1533  -5.0746  -4.9850   1.5651  12.2377  16.8837

     occupation numbers 
     1.0000   1.0000   1.0000   1.0000   1.0000   1.0000   0.2648   0.0000

          k =-0.2500 0.5000-0.2500 (  1952 PWs)   bands (ev):

    -5.2733  -5.1961  -5.1621  -5.0397  -4.9511   2.2867  10.5256  16.6072

     occupation numbers 
     1.0000   1.0000   1.0000   1.0000   1.0000   1.0000   1.0336   0.0000

          k =-0.3125 0.5625-0.3125 (  1937 PWs)   bands (ev):

    -5.2708  -5.2072  -5.1727  -5.0058  -4.9282   3.0738   9.0519  16.0907

     occupation numbers 
     1.0000   1.0000   1.0000   1.0000   1.0000   1.0000   1.0000   0.0000

          k = 0.6250-0.3750 0.6250 (  1943 PWs)   bands (ev):

    -5.2663  -5.2150  -5.1811  -4.9782  -4.9229   3.7408   8.0146  15.6606

     occupation numbers 
     1.0000   1.0000   1.0000   1.0000   1.0000   1.0000   1.0000   0.0000

          k = 0.5625-0.3125 0.5625 (  1946 PWs)   bands (ev):

    -5.2582  -5.2194  -5.1848  -4.9616  -4.9370   3.8633   7.8431  15.3523

     occupation numbers 
     1.0000   1.0000   1.0000   1.0000   1.0000   1.0000   1.0000   0.0000

          k = 0.5000-0.2500 0.5000 (  1940 PWs)   bands (ev):

    -5.2476  -5.2198  -5.1828  -4.9688  -4.9584   3.3199   8.6580  15.1868

     occupation numbers 
     1.0000   1.0000   1.0000   1.0000   1.0000   1.0000   1.0000  -0.0000

          k = 0.4375-0.1875 0.4375 (  1937 PWs)   bands (ev):

    -5.2398  -5.2139  -5.1754  -5.0130  -4.9685   2.5428  10.0203  15.1761

     occupation numbers 
     1.0000   1.0000   1.0000   1.0000   1.0000   1.0000   1.0229   0.0000

          k = 0.3750-0.1250 0.3750 (  1943 PWs)   bands (ev):

    -5.2386  -5.2022  -5.1653  -5.0611  -4.9889   1.7912  11.6514  15.3317

     occupation numbers 
     1.0000   1.0000   1.0000   1.0000   1.0000   1.0000   0.7422   0.0000

          k = 0.3125-0.0625 0.3125 (  1938 PWs)   bands (ev):

    -5.2409  -5.1919  -5.1621  -5.0975  -5.0146   1.1525  13.4061  15.6900

     occupation numbers 
     1.0000   1.0000   1.0000   1.0000   1.0000   1.0000  -0.0403   0.0000

          k = 0.2500 0.0000 0.2500 (  1943 PWs)   bands (ev):

    -5.2431  -5.1898  -5.1814  -5.1019  -5.0400   0.6571  15.0097  16.4482

     occupation numbers 
     1.0000   1.0000   1.0000   1.0000   1.0000   1.0000   0.0000   0.0000

          k = 0.0000 0.3750 0.0000 (  1952 PWs)   bands (ev):

    -5.2948  -5.1434  -5.1337  -5.1337  -5.0345   0.7612  16.0578  17.0219

     occupation numbers 
     1.0000   1.0000   1.0000   1.0000   1.0000   1.0000   0.0000   0.0000

          k =-0.0625 0.4375-0.0625 (  1958 PWs)   bands (ev):

    -5.3066  -5.1662  -5.1100  -5.1013  -5.0151   1.1532  14.6441  16.5389

     occupation numbers 
     1.0000   1.0000   1.0000   1.0000   1.0000   1.0000  -0.0013   0.0000

          k =-0.1250 0.5000-0.1250 (  1953 PWs)   bands (ev):

    -5.3079  -5.1844  -5.1049  -5.0734  -4.9818   1.6953  12.9257  16.1112

     occupation numbers 
     1.0000   1.0000   1.0000   1.0000   1.0000   1.0000   0.0071   0.0000

          k =-0.1875 0.5625-0.1875 (  1947 PWs)   bands (ev):

    -5.3024  -5.1940  -5.1116  -5.0518  -4.9476   2.3697  11.2635  15.4322

     occupation numbers 
     1.0000   1.0000   1.0000   1.0000   1.0000   1.0000   0.9336   0.0000

          k =-0.2500 0.6250-0.2500 (  1939 PWs)   bands (ev):

    -5.2946  -5.1940  -5.1222  -5.0350  -4.9247   3.1289   9.7798  14.7760

     occupation numbers 
     1.0000   1.0000   1.0000   1.0000   1.0000   1.0000   1.0050   0.0000

          k = 0.6875-0.3125 0.6875 (  1942 PWs)   bands (ev):

    -5.2857  -5.1887  -5.1324  -5.0206  -4.9200   3.8397   8.6356  14.2144

     occupation numbers 
     1.0000   1.0000   1.0000   1.0000   1.0000   1.0000   1.0000  -0.0061

          k = 0.6250-0.2500 0.6250 (  1938 PWs)   bands (ev):

    -5.2737  -5.1852  -5.1392  -5.0072  -4.9353   4.1653   8.1778  13.7876

     occupation numbers 
     1.0000   1.0000   1.0000   1.0000   1.0000   1.0000   1.0000  -0.0229

          k = 0.5625-0.1875 0.5625 (  1945 PWs)   bands (ev):

    -5.2579  -5.1882  -5.1410  -4.9956  -4.9688   3.8202   8.6903  13.5222

     occupation numbers 
     1.0000   1.0000   1.0000   1.0000   1.0000   1.0000   1.0000  -0.0346

          k = 0.5000-0.1250 0.5000 (  1942 PWs)   bands (ev):

    -5.2390  -5.1981  -5.1372  -5.0154  -4.9884   3.1098   9.8514  13.4447

     occupation numbers 
     1.0000   1.0000   1.0000   1.0000   1.0000   1.0000   1.0025  -0.0300

          k = 0.4375-0.0625 0.4375 (  1940 PWs)   bands (ev):

    -5.2206  -5.2116  -5.1280  -5.0681  -4.9882   2.3580  11.2748  13.6146

     occupation numbers 
     1.0000   1.0000   1.0000   1.0000   1.0000   1.0000   0.9752  -0.0055

          k = 0.3750 0.0000 0.3750 (  1943 PWs)   bands (ev):

    -5.2293  -5.2019  -5.1222  -5.1115  -4.9969   1.6904  12.5872  14.2637

     occupation numbers 
     1.0000   1.0000   1.0000   1.0000   1.0000   1.0000   0.1181   0.0000

          k = 0.0000 0.5000 0.0000 (  1964 PWs)   bands (ev):

    -5.3309  -5.1900  -5.0678  -5.0678  -5.0080   1.4914  14.3552  15.9995

     occupation numbers 
     1.0000   1.0000   1.0000   1.0000   1.0000   1.0000  -0.0064   0.0000

          k =-0.0625 0.5625-0.0625 (  1949 PWs)   bands (ev):

    -5.3422  -5.2120  -5.0497  -5.0375  -4.9818   1.9798  13.1727  15.4037

     occupation numbers 
     1.0000   1.0000   1.0000   1.0000   1.0000   1.0000  -0.0587   0.0000

          k =-0.1250 0.6250-0.1250 (  1941 PWs)   bands (ev):

    -5.3399  -5.2242  -5.0534  -5.0189  -4.9462   2.6027  11.7812  14.5523

     occupation numbers 
     1.0000   1.0000   1.0000   1.0000   1.0000   1.0000   0.7436   0.0000

          k =-0.1875 0.6875-0.1875 (  1941 PWs)   bands (ev):

    -5.3289  -5.2204  -5.0634  -5.0143  -4.9216   3.3204  10.4403  13.6939

     occupation numbers 
     1.0000   1.0000   1.0000   1.0000   1.0000   1.0000   1.0190  -0.0038

          k = 0.7500-0.2500 0.7500 (  1941 PWs)   bands (ev):

    -5.3154  -5.1980  -5.0744  -5.0224  -4.9161   4.0303   9.3281  12.9516

     occupation numbers 
     1.0000   1.0000   1.0000   1.0000   1.0000   1.0000   1.0000  -0.0305

          k = 0.6875-0.1875 0.6875 (  1941 PWs)   bands (ev):

    -5.3003  -5.1649  -5.0839  -5.0379  -4.9312   4.4774   8.7304  12.3728

     occupation numbers 
     1.0000   1.0000   1.0000   1.0000   1.0000   1.0000   1.0000   0.1312

          k = 0.6250-0.1250 0.6250 (  1944 PWs)   bands (ev):

    -5.2820  -5.1421  -5.0904  -5.0464  -4.9644   4.3400   8.9702  11.9910

     occupation numbers 
     1.0000   1.0000   1.0000   1.0000   1.0000   1.0000   1.0000   0.4159

          k = 0.5625-0.0625 0.5625 (  1937 PWs)   bands (ev):

    -5.2606  -5.1530  -5.0937  -5.0293  -5.0097   3.7477   9.8630  11.8764

     occupation numbers 
     1.0000   1.0000   1.0000   1.0000   1.0000   1.0000   1.0000   0.4160

          k = 0.5000 0.0000 0.5000 (  1947 PWs)   bands (ev):

    -5.2383  -5.1831  -5.0989  -5.0541  -5.0039   3.0319  10.7927  12.3153

     occupation numbers 
     1.0000   1.0000   1.0000   1.0000   1.0000   1.0000   1.0100   0.0340

          k = 0.0000 0.6250 0.0000 (  1956 PWs)   bands (ev):

    -5.3667  -5.2400  -5.0001  -5.0001  -4.9812   2.4134  12.5505  15.1492

     occupation numbers 
     1.0000   1.0000   1.0000   1.0000   1.0000   1.0000   0.1239   0.0000

          k =-0.0625 0.6875-0.0625 (  1953 PWs)   bands (ev):

    -5.3750  -5.2590  -4.9965  -4.9751  -4.9470   2.9812  11.5526  14.4363

     occupation numbers 
     1.0000   1.0000   1.0000   1.0000   1.0000   1.0000   0.8809   0.0000

          k =-0.1250 0.7500-0.1250 (  1940 PWs)   bands (ev):

    -5.3672  -5.2630  -5.0057  -4.9680  -4.9188   3.6467  10.5510  13.3472

     occupation numbers 
     1.0000   1.0000   1.0000   1.0000   1.0000   1.0000   1.0150  -0.0068

          k = 0.8125-0.1875 0.8125 (  1940 PWs)   bands (ev):

    -5.3500  -5.2456  -5.0168  -4.9798  -4.9109   4.3211   9.7130  12.2790

     occupation numbers 
     1.0000   1.0000   1.0000   1.0000   1.0000   1.0000   1.0000   0.0829

          k = 0.7500-0.1250 0.7500 (  1929 PWs)   bands (ev):

    -5.3305  -5.2043  -5.0284  -5.0088  -4.9239   4.8010   9.2606  11.3846

     occupation numbers 
     1.0000   1.0000   1.0000   1.0000   1.0000   1.0000   1.0000   0.8979

          k = 0.6875-0.0625 0.6875 (  1926 PWs)   bands (ev):

    -5.3092  -5.1471  -5.0509  -5.0412  -4.9535   4.8120   9.4585  10.7356

     occupation numbers 
     1.0000   1.0000   1.0000   1.0000   1.0000   1.0000   1.0000   1.0356

          k = 0.6250 0.0000 0.6250 (  1939 PWs)   bands (ev):

    -5.2853  -5.1020  -5.0845  -5.0598  -4.9883   4.3738   9.9502  10.6935

     occupation numbers 
     1.0000   1.0000   1.0000   1.0000   1.0000   1.0000   1.0000   1.0775

          k = 0.0000 0.7500 0.0000 (  1956 PWs)   bands (ev):

[...]

          k =-0.1250 0.2500 0.0000 (  1944 PWs)   bands (ev):

    -5.2553  -5.1899  -5.1899  -5.1020  -5.0548   0.3420  16.3923  17.5386

     occupation numbers 
     1.0000   1.0000   1.0000   1.0000   1.0000   1.0000   0.0000   0.0000

          k =-0.1875 0.3125-0.0625 (  1942 PWs)   bands (ev):

    -5.2570  -5.1819  -5.1695  -5.1040  -5.0346   0.7356  14.6820  16.8034

     occupation numbers 
     1.0000   1.0000   1.0000   1.0000   1.0000   1.0000  -0.0033   0.0000

          k =-0.2500 0.3750-0.1250 (  1947 PWs)   bands (ev):

    -5.2564  -5.1876  -5.1644  -5.0818  -5.0050   1.2821  12.8082  16.3818

     occupation numbers 
     1.0000   1.0000   1.0000   1.0000   1.0000   1.0000   0.0436   0.0000

          k =-0.3125 0.4375-0.1875 (  1940 PWs)   bands (ev):

    -5.2562  -5.2010  -5.1716  -5.0427  -4.9728   1.9665  11.0322  16.1164

     occupation numbers 
     1.0000   1.0000   1.0000   1.0000   1.0000   1.0000   0.9634   0.0000

          k =-0.3750 0.5000-0.2500 (  1941 PWs)   bands (ev):

    -5.2567  -5.2154  -5.1810  -5.0021  -4.9465   2.7461   9.4542  15.9785

     occupation numbers 
     1.0000   1.0000   1.0000   1.0000   1.0000   1.0000   1.0026   0.0000

          k = 0.5625-0.4375 0.6875 (  1939 PWs)   bands (ev):

    -5.2570  -5.2265  -5.1880  -4.9698  -4.9321   3.4944   8.2214  15.9391

     occupation numbers 
     1.0000   1.0000   1.0000   1.0000   1.0000   1.0000   1.0000   0.0000

          k = 0.5000-0.3750 0.6250 (  1950 PWs)   bands (ev):

    -5.2570  -5.2309  -5.1906  -4.9564  -4.9289   3.8570   7.6963  15.9403

     occupation numbers 
     1.0000   1.0000   1.0000   1.0000   1.0000   1.0000   1.0000   0.0000

          k =-0.1250 0.3750 0.0000 (  1954 PWs)   bands (ev):

    -5.2838  -5.1603  -5.1356  -5.1241  -5.0268   0.8661  15.0403  16.4405

     occupation numbers 
     1.0000   1.0000   1.0000   1.0000   1.0000   1.0000   0.0000   0.0000

          k =-0.1875 0.4375-0.0625 (  1946 PWs)   bands (ev):

    -5.2847  -5.1732  -5.1271  -5.0988  -4.9998   1.3601  13.4638  15.7213

     occupation numbers 
     1.0000   1.0000   1.0000   1.0000   1.0000   1.0000  -0.0441   0.0000

          k =-0.2500 0.5000-0.1250 (  1940 PWs)   bands (ev):

    -5.2798  -5.1883  -5.1319  -5.0666  -4.9688   1.9955  11.7551  15.3199

     occupation numbers 
     1.0000   1.0000   1.0000   1.0000   1.0000   1.0000   0.6837   0.0000

          k =-0.3125 0.5625-0.1875 (  1937 PWs)   bands (ev):

    -5.2733  -5.2001  -5.1391  -5.0380  -4.9427   2.7396  10.1678  15.0461

     occupation numbers 
     1.0000   1.0000   1.0000   1.0000   1.0000   1.0000   1.0258   0.0000

          k = 0.6250-0.3750 0.7500 (  1939 PWs)   bands (ev):

    -5.2666  -5.2093  -5.1448  -5.0137  -4.9285   3.5016   8.8490  14.8079

     occupation numbers 
     1.0000   1.0000   1.0000   1.0000   1.0000   1.0000   1.0000   0.0000

          k = 0.5625-0.3125 0.6875 (  1942 PWs)   bands (ev):

    -5.2583  -5.2170  -5.1479  -4.9963  -4.9293   4.0228   8.0759  14.5655

     occupation numbers 
     1.0000   1.0000   1.0000   1.0000   1.0000   1.0000   1.0000  -0.0014

          k = 0.5000-0.2500 0.6250 (  1944 PWs)   bands (ev):

    -5.2466  -5.2235  -5.1487  -4.9917  -4.9421   3.8977   8.2589  14.3684

     occupation numbers 
     1.0000   1.0000   1.0000   1.0000   1.0000   1.0000   1.0000  -0.0038

          k = 0.4375-0.1875 0.5625 (  1939 PWs)   bands (ev):

    -5.2345  -5.2265  -5.1470  -5.0088  -4.9570   3.2490   9.2716  14.2822

     occupation numbers 
     1.0000   1.0000   1.0000   1.0000   1.0000   1.0000   1.0000  -0.0035

          k = 0.3750-0.1250 0.5000 (  1938 PWs)   bands (ev):

    -5.2389  -5.2123  -5.1419  -5.0453  -4.9712   2.4782  10.6944  14.3526

     occupation numbers 
     1.0000   1.0000   1.0000   1.0000   1.0000   1.0000   1.0313  -0.0001

          k = 0.3125-0.0625 0.4375 (  1938 PWs)   bands (ev):

    -5.2476  -5.1958  -5.1335  -5.0886  -4.9893   1.7671  12.2861  14.6398

     occupation numbers 
     1.0000   1.0000   1.0000   1.0000   1.0000   1.0000   0.2762   0.0000

          k = 0.2500 0.0000 0.3750 (  1943 PWs)   bands (ev):

    -5.2552  -5.1838  -5.1374  -5.1151  -5.0115   1.1784  13.7472  15.3564

     occupation numbers 
     1.0000   1.0000   1.0000   1.0000   1.0000   1.0000  -0.0450   0.0000

          k =-0.1250 0.5000 0.0000 (  1951 PWs)   bands (ev):

    -5.3176  -5.1868  -5.0906  -5.0693  -4.9938   1.5936  13.6915  15.4507

     occupation numbers 
     1.0000   1.0000   1.0000   1.0000   1.0000   1.0000  -0.0479   0.0000

          k =-0.1875 0.5625-0.0625 (  1941 PWs)   bands (ev):

    -5.3159  -5.2023  -5.0898  -5.0410  -4.9654   2.1770  12.3230  14.7214

     occupation numbers 
     1.0000   1.0000   1.0000   1.0000   1.0000   1.0000   0.2584   0.0000

          k =-0.2500 0.6250-0.1250 (  1939 PWs)   bands (ev):

    -5.3060  -5.2070  -5.0960  -5.0266  -4.9394   2.8761  10.8664  14.1830

     occupation numbers 
     1.0000   1.0000   1.0000   1.0000   1.0000   1.0000   1.0229   0.0000

          k = 0.6875-0.3125 0.8125 (  1935 PWs)   bands (ev):

    -5.2942  -5.1991  -5.1018  -5.0254  -4.9246   3.6212   9.5664  13.6701

     occupation numbers 
     1.0000   1.0000   1.0000   1.0000   1.0000   1.0000   1.0000  -0.0092

          k = 0.6250-0.2500 0.7500 (  1940 PWs)   bands (ev):

    -5.2823  -5.1871  -5.1020  -5.0321  -4.9260   4.2238   8.6695  13.2019

     occupation numbers 
     1.0000   1.0000   1.0000   1.0000   1.0000   1.0000   1.0000  -0.0349

          k = 0.5625-0.1875 0.6875 (  1942 PWs)   bands (ev):

    -5.2680  -5.1828  -5.0996  -5.0352  -4.9438   4.3176   8.5583  12.8471

     occupation numbers 
     1.0000   1.0000   1.0000   1.0000   1.0000   1.0000   1.0000  -0.0110

          k = 0.5000-0.1250 0.6250 (  1940 PWs)   bands (ev):

    -5.2505  -5.1894  -5.1054  -5.0269  -4.9729   3.8235   9.3025  12.6621

     occupation numbers 
     1.0000   1.0000   1.0000   1.0000   1.0000   1.0000   1.0000   0.0163

          k = 0.4375-0.0625 0.5625 (  1939 PWs)   bands (ev):

    -5.2308  -5.2062  -5.1119  -5.0360  -4.9890   3.1005  10.4817  12.7266

     occupation numbers 
     1.0000   1.0000   1.0000   1.0000   1.0000   1.0000   1.0093  -0.0141

          k = 0.3750 0.0000 0.5000 (  1940 PWs)   bands (ev):

    -5.2285  -5.2114  -5.1146  -5.0724  -4.9854   2.3850  11.6061  13.2931

     occupation numbers 
     1.0000   1.0000   1.0000   1.0000   1.0000   1.0000   0.9134  -0.0063

          k =-0.1250 0.6250 0.0000 (  1946 PWs)   bands (ev):

    -5.3514  -5.2326  -5.0390  -5.0010  -4.9610   2.5088  12.2483  14.6307

     occupation numbers 
     1.0000   1.0000   1.0000   1.0000   1.0000   1.0000   0.3546   0.0000

          k =-0.1875 0.6875-0.0625 (  1944 PWs)   bands (ev):

    -5.3451  -5.2418  -5.0441  -4.9816  -4.9373   3.1562  11.1645  13.7597

     occupation numbers 
     1.0000   1.0000   1.0000   1.0000   1.0000   1.0000   1.0009  -0.0004

          k = 0.7500-0.2500 0.8750 (  1940 PWs)   bands (ev):

    -5.3295  -5.2330  -5.0536  -4.9866  -4.9204   3.8628  10.1067  12.8660

     occupation numbers 
     1.0000   1.0000   1.0000   1.0000   1.0000   1.0000   1.0015  -0.0251

          k = 0.6875-0.1875 0.8125 (  1938 PWs)   bands (ev):

    -5.3125  -5.2026  -5.0637  -5.0098  -4.9195   4.4821   9.2994  12.1000

     occupation numbers 
     1.0000   1.0000   1.0000   1.0000   1.0000   1.0000   1.0000   0.2805

          k = 0.6250-0.1250 0.7500 (  1935 PWs)   bands (ev):

    -5.2949  -5.1608  -5.0716  -5.0430  -4.9364   4.7206   9.0723  11.5281

     occupation numbers 
     1.0000   1.0000   1.0000   1.0000   1.0000   1.0000   1.0000   0.8138

          k = 0.5625-0.0625 0.6875 (  1938 PWs)   bands (ev):

    -5.2747  -5.1382  -5.0839  -5.0542  -4.9678   4.4068   9.5675  11.2225

     occupation numbers 
     1.0000   1.0000   1.0000   1.0000   1.0000   1.0000   1.0000   0.9612

          k = 0.5000 0.0000 0.6250 (  1936 PWs)   bands (ev):

    -5.2525  -5.1659  -5.0954  -5.0235  -5.0049   3.7824  10.2338  11.5099

     occupation numbers 
     1.0000   1.0000   1.0000   1.0000   1.0000   1.0000   1.0000   0.7459

          k =-0.1250 0.7500 0.0000 (  1946 PWs)   bands (ev):

    -5.3801  -5.2749  -4.9921  -4.9416  -4.9336   3.5701  10.7024  14.0187

     occupation numbers 
     1.0000   1.0000   1.0000   1.0000   1.0000   1.0000   1.0194   0.0000

          k = 0.8125-0.1875 0.9375 (  1943 PWs)   bands (ev):

    -5.3676  -5.2753  -5.0000  -4.9427  -4.9141   4.2179   9.9348  12.9625

     occupation numbers 
     1.0000   1.0000   1.0000   1.0000   1.0000   1.0000   1.0007  -0.0293

          k = 0.7500-0.1250 0.8750 (  1928 PWs)   bands (ev):

    -5.3457  -5.2530  -5.0118  -4.9683  -4.9085   4.7933   9.4322  11.8250

     occupation numbers 
     1.0000   1.0000   1.0000   1.0000   1.0000   1.0000   1.0000   0.5137

          k = 0.6875-0.0625 0.8125 (  1928 PWs)   bands (ev):

    -5.3230  -5.2065  -5.0311  -5.0057  -4.9211   5.0623   9.4365  10.8417

     occupation numbers 
     1.0000   1.0000   1.0000   1.0000   1.0000   1.0000   1.0000   1.0565

          k = 0.6250 0.0000 0.7500 (  1925 PWs)   bands (ev):

    -5.2995  -5.1470  -5.0738  -5.0326  -4.9454   4.8845  10.0798  10.0840

     occupation numbers 
     1.0000   1.0000   1.0000   1.0000   1.0000   1.0000   1.0000   1.0201

          k = 0.8750-0.1250 1.0000 (  1953 PWs)   bands (ev):

    -5.3992  -5.3044  -4.9595  -4.9158  -4.9011   4.6471   9.2720  13.6409

     occupation numbers 
     1.0000   1.0000   1.0000   1.0000   1.0000   1.0000   1.0000  -0.0121

          k = 0.8125-0.0625 0.9375 (  1946 PWs)   bands (ev):

    -5.3798  -5.2941  -4.9675  -4.9368  -4.8941   5.0952   8.9275  12.5531

     occupation numbers 
     1.0000   1.0000   1.0000   1.0000   1.0000   1.0000   1.0000   0.0090

          k = 0.7500 0.0000 0.8750 (  1930 PWs)   bands (ev):

    -5.3516  -5.2604  -4.9824  -4.9775  -4.9031   5.2385   9.0810  11.4546

     occupation numbers 
     1.0000   1.0000   1.0000   1.0000   1.0000   1.0000   1.0000   0.8956

          k =-0.1250-1.0000 0.0000 (  1940 PWs)   bands (ev):

    -5.4058  -5.3149  -4.9476  -4.9095  -4.8867   5.2304   8.5603  13.5131

     occupation numbers 
     1.0000   1.0000   1.0000   1.0000   1.0000   1.0000   1.0000  -0.0314

          k =-0.2500 0.5000 0.0000 (  1944 PWs)   bands (ev):

    -5.2804  -5.1877  -5.1181  -5.0726  -4.9813   1.8962  12.6111  14.3863

     occupation numbers 
     1.0000   1.0000   1.0000   1.0000   1.0000   1.0000   0.0988   0.0000

          k =-0.3125 0.5625-0.0625 (  1941 PWs)   bands (ev):

    -5.2675  -5.2020  -5.1192  -5.0422  -4.9667   2.5596  11.3376  13.7141

     occupation numbers 
     1.0000   1.0000   1.0000   1.0000   1.0000   1.0000   0.9663  -0.0021

          k = 0.6250-0.3750 0.8750 (  1944 PWs)   bands (ev):

    -5.2535  -5.2128  -5.1163  -5.0273  -4.9525   3.3018   9.9766  13.4523

     occupation numbers 
     1.0000   1.0000   1.0000   1.0000   1.0000   1.0000   1.0030  -0.0203

          k = 0.5625-0.3125 0.8125 (  1939 PWs)   bands (ev):

    -5.2447  -5.2196  -5.1063  -5.0292  -4.9391   3.9927   8.8755  13.3683

     occupation numbers 
     1.0000   1.0000   1.0000   1.0000   1.0000   1.0000   1.0000  -0.0379

          k = 0.5000-0.2500 0.7500 (  1918 PWs)   bands (ev):

    -5.2417  -5.2222  -5.0992  -5.0334  -4.9335   4.3144   8.4128  13.3547

     occupation numbers 
     1.0000   1.0000   1.0000   1.0000   1.0000   1.0000   1.0000  -0.0402

          k =-0.2500 0.6250 0.0000 (  1940 PWs)   bands (ev):

    -5.3077  -5.2162  -5.0910  -5.0036  -4.9580   2.7877  11.5557  13.5884

     occupation numbers 
     1.0000   1.0000   1.0000   1.0000   1.0000   1.0000   0.9322  -0.0003

          k = 0.6875-0.3125 0.9375 (  1937 PWs)   bands (ev):

    -5.2892  -5.2198  -5.0966  -4.9896  -4.9486   3.4866  10.5458  12.9053

     occupation numbers 
     1.0000   1.0000   1.0000   1.0000   1.0000   1.0000   1.0088  -0.0223

          k = 0.6250-0.2500 0.8750 (  1941 PWs)   bands (ev):

    -5.2721  -5.2085  -5.0981  -5.0106  -4.9320   4.1735   9.5512  12.4977

     occupation numbers 
     1.0000   1.0000   1.0000   1.0000   1.0000   1.0000   1.0000   0.0214

          k = 0.5625-0.1875 0.8125 (  1937 PWs)   bands (ev):

    -5.2603  -5.1933  -5.0861  -5.0444  -4.9274   4.6098   8.9704  12.1929

     occupation numbers 
     1.0000   1.0000   1.0000   1.0000   1.0000   1.0000   1.0000   0.2706

          k = 0.5000-0.1250 0.7500 (  1934 PWs)   bands (ev):

    -5.2483  -5.1931  -5.0868  -5.0483  -4.9391   4.4949   9.1523  11.9905

     occupation numbers 
     1.0000   1.0000   1.0000   1.0000   1.0000   1.0000   1.0000   0.4359

          k = 0.4375-0.0625 0.6875 (  1938 PWs)   bands (ev):

    -5.2344  -5.2115  -5.1085  -5.0140  -4.9650   3.9292   9.9520  11.9993

     occupation numbers 
     1.0000   1.0000   1.0000   1.0000   1.0000   1.0000   1.0000   0.2937

          k = 0.3750 0.0000 0.6250 (  1934 PWs)   bands (ev):

    -5.2419  -5.2177  -5.1161  -5.0061  -4.9800   3.2273  10.8138  12.4961

     occupation numbers 
     1.0000   1.0000   1.0000   1.0000   1.0000   1.0000   1.0104   0.0046

          k = 0.7500-0.2500 1.0000 (  1944 PWs)   bands (ev):

    -5.3313  -5.2499  -5.0503  -4.9474  -4.9430   3.7992  10.4985  12.9950

     occupation numbers 
     1.0000   1.0000   1.0000   1.0000   1.0000   1.0000   1.0067  -0.0270

          k = 0.6875-0.1875 0.9375 (  1936 PWs)   bands (ev):

    -5.3070  -5.2408  -5.0618  -4.9736  -4.9188   4.4450   9.8699  12.1599

     occupation numbers 
     1.0000   1.0000   1.0000   1.0000   1.0000   1.0000   1.0000   0.2017

          k = 0.6250-0.1250 0.8750 (  1930 PWs)   bands (ev):

    -5.2863  -5.2070  -5.0788  -5.0094  -4.9117   4.9064   9.5021  11.3804

     occupation numbers 
     1.0000   1.0000   1.0000   1.0000   1.0000   1.0000   1.0000   0.9819

          k = 0.5625-0.0625 0.8125 (  1932 PWs)   bands (ev):

    -5.2693  -5.1617  -5.1097  -5.0331  -4.9225   4.9364   9.6544  10.8287

     occupation numbers 
     1.0000   1.0000   1.0000   1.0000   1.0000   1.0000   1.0000   1.0398

          k = 0.5000 0.0000 0.7500 (  1930 PWs)   bands (ev):

    -5.2514  -5.1659  -5.1181  -5.0286  -4.9462   4.5331   9.9979  10.9107

     occupation numbers 
     1.0000   1.0000   1.0000   1.0000   1.0000   1.0000   1.0000   1.0743

          k = 0.7500-0.1250 1.0000 (  1939 PWs)   bands (ev):

    -5.3472  -5.2748  -5.0084  -4.9526  -4.9015   4.7798   9.4713  12.6292

     occupation numbers 
     1.0000   1.0000   1.0000   1.0000   1.0000   1.0000   1.0000  -0.0272

          k = 0.6875-0.0625 0.9375 (  1931 PWs)   bands (ev):

    -5.3170  -5.2538  -5.0267  -4.9871  -4.8943   5.1647   9.3552  11.6299

     occupation numbers 
     1.0000   1.0000   1.0000   1.0000   1.0000   1.0000   1.0000   0.8646

          k = 0.6250 0.0000 0.8750 (  1925 PWs)   bands (ev):

    -5.2915  -5.2071  -5.0673  -5.0143  -4.9031   5.2074   9.7073  10.6831

     occupation numbers 
     1.0000   1.0000   1.0000   1.0000   1.0000   1.0000   1.0000   1.0200

          k =-0.2500-1.0000 0.0000 (  1940 PWs)   bands (ev):

    -5.3528  -5.2838  -4.9742  -4.9737  -4.8867   5.2704   8.9509  12.5056

     occupation numbers 
     1.0000   1.0000   1.0000   1.0000   1.0000   1.0000   1.0000   0.0702

          k = 0.6250-0.2500 1.0000 (  1932 PWs)   bands (ev):

    -5.2566  -5.2285  -5.1042  -4.9842  -4.9447   4.1417  10.2029  11.9040

     occupation numbers 
     1.0000   1.0000   1.0000   1.0000   1.0000   1.0000   1.0000   0.3980

          k = 0.5625-0.1875 0.9375 (  1931 PWs)   bands (ev):

    -5.2399  -5.2101  -5.1139  -5.0161  -4.9215   4.7112   9.7516  11.4022

     occupation numbers 
     1.0000   1.0000   1.0000   1.0000   1.0000   1.0000   1.0000   0.9760

          k = 0.5000-0.1250 0.8750 (  1926 PWs)   bands (ev):

    -5.2408  -5.1874  -5.1211  -5.0335  -4.9126   4.9562   9.5053  11.2857

     occupation numbers 
     1.0000   1.0000   1.0000   1.0000   1.0000   1.0000   1.0000   0.9966

          k = 0.6250-0.1250 1.0000 (  1932 PWs)   bands (ev):

    -5.2673  -5.2407  -5.0810  -4.9974  -4.9020   4.9539   9.7651  11.5393

     occupation numbers 
     1.0000   1.0000   1.0000   1.0000   1.0000   1.0000   1.0000   0.9521

          k = 0.5625-0.0625 0.9375 (  1928 PWs)   bands (ev):

    -5.2455  -5.2053  -5.1176  -5.0210  -4.8943   5.2159   9.9179  10.8489

     occupation numbers 
     1.0000   1.0000   1.0000   1.0000   1.0000   1.0000   1.0000   1.0184

          k = 0.5000 0.0000 0.8750 (  1931 PWs)   bands (ev):

    -5.2380  -5.1694  -5.1517  -5.0267  -4.9026   5.1114  10.1459  10.5411

     occupation numbers 
     1.0000   1.0000   1.0000   1.0000   1.0000   1.0000   1.0000   1.0123

          k =-0.3750-1.0000 0.0000 (  1930 PWs)   bands (ev):

    -5.2711  -5.2458  -5.0663  -5.0080  -4.8866   5.3123   9.5798  11.4160

     occupation numbers 
     1.0000   1.0000   1.0000   1.0000   1.0000   1.0000   1.0000   0.9994

          k =-0.5000-1.0000 0.0000 (  1912 PWs)   bands (ev):

    -5.2263  -5.1708  -5.1708  -5.0255  -4.8865   5.3303  10.4162  10.4162

     occupation numbers 
     1.0000   1.0000   1.0000   1.0000   1.0000   1.0000   1.0000   1.0000

     the Fermi energy is    11.9459 ev
     (compare with:    11.9558 eV, computed in scf)

     Writing output data file /home/elena/AEP_DFT/DFT/tmp/bands/Pb.save/

     init_run     :      0.61s CPU      0.69s WALL (       1 calls)
     electrons    :     27.85s CPU     28.04s WALL (       1 calls)

     Called by init_run:
     wfcinit      :      0.00s CPU      0.00s WALL (       1 calls)
     wfcinit:atom :      0.05s CPU      0.05s WALL (     145 calls)
     wfcinit:wfcr :      1.38s CPU      1.40s WALL (     145 calls)
     potinit      :      0.05s CPU      0.07s WALL (       1 calls)
     hinit0       :      0.44s CPU      0.46s WALL (       1 calls)

     Called by electrons:
     c_bands      :     27.67s CPU     27.86s WALL (       1 calls)
     v_of_rho     :      0.04s CPU      0.06s WALL (       1 calls)
     v_h          :      0.00s CPU      0.00s WALL (       1 calls)
     v_xc         :      0.04s CPU      0.06s WALL (       1 calls)
     newd         :      0.07s CPU      0.11s WALL (       1 calls)

     Called by c_bands:
     init_us_2    :      0.06s CPU      0.07s WALL (     145 calls)
     cegterg      :     25.91s CPU     26.07s WALL (     279 calls)

     Called by sum_band:

     Called by *egterg:
     cdiaghg      :      0.31s CPU      0.31s WALL (    4137 calls)
     cegterg:over :      1.40s CPU      1.41s WALL (    3992 calls)
     cegterg:upda :      0.80s CPU      0.80s WALL (    3992 calls)
     cegterg:last :      1.97s CPU      1.99s WALL (    2500 calls)
     h_psi        :     21.44s CPU     21.58s WALL (    4416 calls)
     s_psi        :      0.85s CPU      0.85s WALL (    4416 calls)
     g_psi        :      0.13s CPU      0.13s WALL (    3992 calls)

     Called by h_psi:
     h_psi:calbec :      1.07s CPU      1.07s WALL (    4416 calls)
     vloc_psi     :     19.43s CPU     19.56s WALL (    4416 calls)
     add_vuspsi   :      0.87s CPU      0.87s WALL (    4416 calls)

     General routines
     calbec       :      1.06s CPU      1.06s WALL (    4416 calls)
     fft          :      0.03s CPU      0.03s WALL (      13 calls)
     ffts         :      0.00s CPU      0.00s WALL (       1 calls)
     fftw         :     17.61s CPU     17.73s WALL (   44914 calls)
     interpolate  :      0.01s CPU      0.01s WALL (       1 calls)
     davcio       :      0.01s CPU      0.02s WALL (     290 calls)


     PWSCF        :     29.17s CPU     29.47s WALL


   This run was terminated on:  22:37:20   1Jul2021            

=------------------------------------------------------------------------------=
   JOB DONE.
=------------------------------------------------------------------------------=
