
     Program PWSCF v.6.7MaX starts on  1Jul2021 at 22:42:20 

     This program is part of the open-source Quantum ESPRESSO suite
     for quantum simulation of materials; please cite
         "P. Giannozzi et al., J. Phys.:Condens. Matter 21 395502 (2009);
         "P. Giannozzi et al., J. Phys.:Condens. Matter 29 465901 (2017);
          URL http://www.quantum-espresso.org", 
     in publications or presentations arising from this work. More details at
     http://www.quantum-espresso.org/quote

     Serial version
     Waiting for input...
     Reading input from standard input

     Current dimensions of program PWSCF are:
     Max number of different atomic species (ntypx) = 10
     Max number of k-points (npk) =  40000
     Max angular momentum in pseudopotentials (lmaxx) =  3

     Atomic positions and unit cell read from directory:
     /home/elena/AEP_DFT/DFT/tmp/bands/Pb.save/

     file Pb.pbe-dn-rrkjus_psl.1.0.0.UPF: wavefunction(s)  6S 5D renormalized

     G-vector sticks info
     --------------------
     sticks:   dense  smooth     PW     G-vecs:    dense   smooth      PW
     Sum        1639     823    253                43895    15593    2685



     bravais-lattice index     =            2
     lattice parameter (alat)  =       9.2226  a.u.
     unit-cell volume          =     196.1075 (a.u.)^3
     number of atoms/cell      =            1
     number of atomic types    =            1
     number of electrons       =        14.00
     number of Kohn-Sham states=            8
     kinetic-energy cutoff     =      70.0000  Ry
     charge density cutoff     =     560.0000  Ry
     Exchange-correlation= PBE
                           (   1   4   3   4   0   0   0)

     celldm(1)=   9.222558  celldm(2)=   0.000000  celldm(3)=   0.000000
     celldm(4)=   0.000000  celldm(5)=   0.000000  celldm(6)=   0.000000

     crystal axes: (cart. coord. in units of alat)
               a(1) = (  -0.500000   0.000000   0.500000 )  
               a(2) = (   0.000000   0.500000   0.500000 )  
               a(3) = (  -0.500000   0.500000   0.000000 )  

     reciprocal axes: (cart. coord. in units 2 pi/alat)
               b(1) = ( -1.000000 -1.000000  1.000000 )  
               b(2) = (  1.000000  1.000000  1.000000 )  
               b(3) = ( -1.000000  1.000000 -1.000000 )  


     PseudoPot. # 1 for Pb read from file:
     /home/elena/qe-6.7/pseudo/Pb.pbe-dn-rrkjus_psl.1.0.0.UPF
     MD5 check sum: 1cf8f5e18580e6a90a35f98a53d336de
     Pseudo is Ultrasoft + core correction, Zval = 14.0
     Generated using &quot;atomic&quot; code by A. Dal Corso  v.6.3
     Using radial grid of 1281 points,  6 beta functions with: 
                l(1) =   0
                l(2) =   0
                l(3) =   1
                l(4) =   1
                l(5) =   2
                l(6) =   2
     Q(r) pseudized with 0 coefficients 


     atomic species   valence    mass     pseudopotential
        Pb            14.00   207.20000     Pb( 1.00)

     48 Sym. Ops., with inversion, found


                                    s                        frac. trans.

      isym =  1     identity                                     

 cryst.   s( 1) = (     1          0          0      )
                  (     0          1          0      )
                  (     0          0          1      )

 cart.    s( 1) = (  1.0000000  0.0000000  0.0000000 )
                  (  0.0000000  1.0000000  0.0000000 )
                  (  0.0000000  0.0000000  1.0000000 )


      isym =  2     180 deg rotation - cart. axis [0,0,1]        

 cryst.   s( 2) = (     0          1         -1      )
                  (     1          0         -1      )
                  (     0          0         -1      )

 cart.    s( 2) = ( -1.0000000  0.0000000  0.0000000 )
                  (  0.0000000 -1.0000000  0.0000000 )
                  (  0.0000000  0.0000000  1.0000000 )


      isym =  3     180 deg rotation - cart. axis [0,1,0]        

 cryst.   s( 3) = (    -1          0          0      )
                  (    -1          0          1      )
                  (    -1          1          0      )

 cart.    s( 3) = ( -1.0000000  0.0000000  0.0000000 )
                  (  0.0000000  1.0000000  0.0000000 )
                  (  0.0000000  0.0000000 -1.0000000 )


      isym =  4     180 deg rotation - cart. axis [1,0,0]        

 cryst.   s( 4) = (     0         -1          1      )
                  (     0         -1          0      )
                  (     1         -1          0      )

 cart.    s( 4) = (  1.0000000  0.0000000  0.0000000 )
                  (  0.0000000 -1.0000000  0.0000000 )
                  (  0.0000000  0.0000000 -1.0000000 )


      isym =  5     180 deg rotation - cart. axis [1,1,0]        

 cryst.   s( 5) = (     0         -1          0      )
                  (    -1          0          0      )
                  (     0          0         -1      )

 cart.    s( 5) = (  0.0000000  1.0000000  0.0000000 )
                  (  1.0000000  0.0000000  0.0000000 )
                  (  0.0000000  0.0000000 -1.0000000 )


      isym =  6     180 deg rotation - cart. axis [1,-1,0]       

 cryst.   s( 6) = (    -1          0          1      )
                  (     0         -1          1      )
                  (     0          0          1      )

 cart.    s( 6) = (  0.0000000 -1.0000000  0.0000000 )
                  ( -1.0000000  0.0000000  0.0000000 )
                  (  0.0000000  0.0000000 -1.0000000 )


      isym =  7      90 deg rotation - cart. axis [0,0,-1]       

 cryst.   s( 7) = (     0          1          0      )
                  (     0          1         -1      )
                  (    -1          1          0      )

 cart.    s( 7) = (  0.0000000  1.0000000  0.0000000 )
                  ( -1.0000000  0.0000000  0.0000000 )
                  (  0.0000000  0.0000000  1.0000000 )


      isym =  8      90 deg rotation - cart. axis [0,0,1]        

 cryst.   s( 8) = (     1          0         -1      )
                  (     1          0          0      )
                  (     1         -1          0      )

 cart.    s( 8) = (  0.0000000 -1.0000000  0.0000000 )
                  (  1.0000000  0.0000000  0.0000000 )
                  (  0.0000000  0.0000000  1.0000000 )


      isym =  9     180 deg rotation - cart. axis [1,0,1]        

 cryst.   s( 9) = (    -1          0          0      )
                  (     0          0         -1      )
                  (     0         -1          0      )

 cart.    s( 9) = (  0.0000000  0.0000000  1.0000000 )
                  (  0.0000000 -1.0000000  0.0000000 )
                  (  1.0000000  0.0000000  0.0000000 )


      isym = 10     180 deg rotation - cart. axis [-1,0,1]       

 cryst.   s(10) = (     1          0          0      )
                  (     1         -1          0      )
                  (     1          0         -1      )

 cart.    s(10) = (  0.0000000  0.0000000 -1.0000000 )
                  (  0.0000000 -1.0000000  0.0000000 )
                  ( -1.0000000  0.0000000  0.0000000 )


      isym = 11      90 deg rotation - cart. axis [0,1,0]        

 cryst.   s(11) = (     0          1         -1      )
                  (    -1          1          0      )
                  (     0          1          0      )

 cart.    s(11) = (  0.0000000  0.0000000  1.0000000 )
                  (  0.0000000  1.0000000  0.0000000 )
                  ( -1.0000000  0.0000000  0.0000000 )


      isym = 12      90 deg rotation - cart. axis [0,-1,0]       

 cryst.   s(12) = (     0         -1          1      )
                  (     0          0          1      )
                  (    -1          0          1      )

 cart.    s(12) = (  0.0000000  0.0000000 -1.0000000 )
                  (  0.0000000  1.0000000  0.0000000 )
                  (  1.0000000  0.0000000  0.0000000 )


      isym = 13     180 deg rotation - cart. axis [0,1,1]        

 cryst.   s(13) = (    -1          1          0      )
                  (     0          1          0      )
                  (     0          1         -1      )

 cart.    s(13) = ( -1.0000000  0.0000000  0.0000000 )
                  (  0.0000000  0.0000000  1.0000000 )
                  (  0.0000000  1.0000000  0.0000000 )


      isym = 14     180 deg rotation - cart. axis [0,1,-1]       

 cryst.   s(14) = (     0          0         -1      )
                  (     0         -1          0      )
                  (    -1          0          0      )

 cart.    s(14) = ( -1.0000000  0.0000000  0.0000000 )
                  (  0.0000000  0.0000000 -1.0000000 )
                  (  0.0000000 -1.0000000  0.0000000 )


      isym = 15      90 deg rotation - cart. axis [-1,0,0]       

 cryst.   s(15) = (     0          0          1      )
                  (    -1          0          1      )
                  (     0         -1          1      )

 cart.    s(15) = (  1.0000000  0.0000000  0.0000000 )
                  (  0.0000000  0.0000000  1.0000000 )
                  (  0.0000000 -1.0000000  0.0000000 )


      isym = 16      90 deg rotation - cart. axis [1,0,0]        

 cryst.   s(16) = (     1         -1          0      )
                  (     1          0         -1      )
                  (     1          0          0      )

 cart.    s(16) = (  1.0000000  0.0000000  0.0000000 )
                  (  0.0000000  0.0000000 -1.0000000 )
                  (  0.0000000  1.0000000  0.0000000 )


      isym = 17     120 deg rotation - cart. axis [-1,-1,-1]     

 cryst.   s(17) = (    -1          0          1      )
                  (    -1          1          0      )
                  (    -1          0          0      )

 cart.    s(17) = (  0.0000000  1.0000000  0.0000000 )
                  (  0.0000000  0.0000000  1.0000000 )
                  (  1.0000000  0.0000000  0.0000000 )


      isym = 18     120 deg rotation - cart. axis [-1,1,1]       

 cryst.   s(18) = (     0          1          0      )
                  (     0          0          1      )
                  (     1          0          0      )

 cart.    s(18) = (  0.0000000 -1.0000000  0.0000000 )
                  (  0.0000000  0.0000000  1.0000000 )
                  ( -1.0000000  0.0000000  0.0000000 )


      isym = 19     120 deg rotation - cart. axis [1,1,-1]       

 cryst.   s(19) = (     1          0         -1      )
                  (     0          0         -1      )
                  (     0          1         -1      )

 cart.    s(19) = (  0.0000000  1.0000000  0.0000000 )
                  (  0.0000000  0.0000000 -1.0000000 )
                  ( -1.0000000  0.0000000  0.0000000 )


      isym = 20     120 deg rotation - cart. axis [1,-1,1]       

 cryst.   s(20) = (     0         -1          0      )
                  (     1         -1          0      )
                  (     0         -1          1      )

 cart.    s(20) = (  0.0000000 -1.0000000  0.0000000 )
                  (  0.0000000  0.0000000 -1.0000000 )
                  (  1.0000000  0.0000000  0.0000000 )


      isym = 21     120 deg rotation - cart. axis [1,1,1]        

 cryst.   s(21) = (     0          0         -1      )
                  (     0          1         -1      )
                  (     1          0         -1      )

 cart.    s(21) = (  0.0000000  0.0000000  1.0000000 )
                  (  1.0000000  0.0000000  0.0000000 )
                  (  0.0000000  1.0000000  0.0000000 )


      isym = 22     120 deg rotation - cart. axis [-1,1,-1]      

 cryst.   s(22) = (    -1          1          0      )
                  (    -1          0          0      )
                  (    -1          0          1      )

 cart.    s(22) = (  0.0000000  0.0000000  1.0000000 )
                  ( -1.0000000  0.0000000  0.0000000 )
                  (  0.0000000 -1.0000000  0.0000000 )


      isym = 23     120 deg rotation - cart. axis [1,-1,-1]      

 cryst.   s(23) = (     0          0          1      )
                  (     1          0          0      )
                  (     0          1          0      )

 cart.    s(23) = (  0.0000000  0.0000000 -1.0000000 )
                  ( -1.0000000  0.0000000  0.0000000 )
                  (  0.0000000  1.0000000  0.0000000 )


      isym = 24     120 deg rotation - cart. axis [-1,-1,1]      

 cryst.   s(24) = (     1         -1          0      )
                  (     0         -1          1      )
                  (     0         -1          0      )

 cart.    s(24) = (  0.0000000  0.0000000 -1.0000000 )
                  (  1.0000000  0.0000000  0.0000000 )
                  (  0.0000000 -1.0000000  0.0000000 )


      isym = 25     inversion                                    

 cryst.   s(25) = (    -1          0          0      )
                  (     0         -1          0      )
                  (     0          0         -1      )

 cart.    s(25) = ( -1.0000000  0.0000000  0.0000000 )
                  (  0.0000000 -1.0000000  0.0000000 )
                  (  0.0000000  0.0000000 -1.0000000 )


      isym = 26     inv. 180 deg rotation - cart. axis [0,0,1]   

 cryst.   s(26) = (     0         -1          1      )
                  (    -1          0          1      )
                  (     0          0          1      )

 cart.    s(26) = (  1.0000000  0.0000000  0.0000000 )
                  (  0.0000000  1.0000000  0.0000000 )
                  (  0.0000000  0.0000000 -1.0000000 )


      isym = 27     inv. 180 deg rotation - cart. axis [0,1,0]   

 cryst.   s(27) = (     1          0          0      )
                  (     1          0         -1      )
                  (     1         -1          0      )

 cart.    s(27) = (  1.0000000  0.0000000  0.0000000 )
                  (  0.0000000 -1.0000000  0.0000000 )
                  (  0.0000000  0.0000000  1.0000000 )


      isym = 28     inv. 180 deg rotation - cart. axis [1,0,0]   

 cryst.   s(28) = (     0          1         -1      )
                  (     0          1          0      )
                  (    -1          1          0      )

 cart.    s(28) = ( -1.0000000  0.0000000  0.0000000 )
                  (  0.0000000  1.0000000  0.0000000 )
                  (  0.0000000  0.0000000  1.0000000 )


      isym = 29     inv. 180 deg rotation - cart. axis [1,1,0]   

 cryst.   s(29) = (     0          1          0      )
                  (     1          0          0      )
                  (     0          0          1      )

 cart.    s(29) = (  0.0000000 -1.0000000  0.0000000 )
                  ( -1.0000000  0.0000000  0.0000000 )
                  (  0.0000000  0.0000000  1.0000000 )


      isym = 30     inv. 180 deg rotation - cart. axis [1,-1,0]  

 cryst.   s(30) = (     1          0         -1      )
                  (     0          1         -1      )
                  (     0          0         -1      )

 cart.    s(30) = (  0.0000000  1.0000000  0.0000000 )
                  (  1.0000000  0.0000000  0.0000000 )
                  (  0.0000000  0.0000000  1.0000000 )


      isym = 31     inv.  90 deg rotation - cart. axis [0,0,-1]  

 cryst.   s(31) = (     0         -1          0      )
                  (     0         -1          1      )
                  (     1         -1          0      )

 cart.    s(31) = (  0.0000000 -1.0000000  0.0000000 )
                  (  1.0000000  0.0000000  0.0000000 )
                  (  0.0000000  0.0000000 -1.0000000 )


      isym = 32     inv.  90 deg rotation - cart. axis [0,0,1]   

 cryst.   s(32) = (    -1          0          1      )
                  (    -1          0          0      )
                  (    -1          1          0      )

 cart.    s(32) = (  0.0000000  1.0000000  0.0000000 )
                  ( -1.0000000  0.0000000  0.0000000 )
                  (  0.0000000  0.0000000 -1.0000000 )


      isym = 33     inv. 180 deg rotation - cart. axis [1,0,1]   

 cryst.   s(33) = (     1          0          0      )
                  (     0          0          1      )
                  (     0          1          0      )

 cart.    s(33) = (  0.0000000  0.0000000 -1.0000000 )
                  (  0.0000000  1.0000000  0.0000000 )
                  ( -1.0000000  0.0000000  0.0000000 )


      isym = 34     inv. 180 deg rotation - cart. axis [-1,0,1]  

 cryst.   s(34) = (    -1          0          0      )
                  (    -1          1          0      )
                  (    -1          0          1      )

 cart.    s(34) = (  0.0000000  0.0000000  1.0000000 )
                  (  0.0000000  1.0000000  0.0000000 )
                  (  1.0000000  0.0000000  0.0000000 )


      isym = 35     inv.  90 deg rotation - cart. axis [0,1,0]   

 cryst.   s(35) = (     0         -1          1      )
                  (     1         -1          0      )
                  (     0         -1          0      )

 cart.    s(35) = (  0.0000000  0.0000000 -1.0000000 )
                  (  0.0000000 -1.0000000  0.0000000 )
                  (  1.0000000  0.0000000  0.0000000 )


      isym = 36     inv.  90 deg rotation - cart. axis [0,-1,0]  

 cryst.   s(36) = (     0          1         -1      )
                  (     0          0         -1      )
                  (     1          0         -1      )

 cart.    s(36) = (  0.0000000  0.0000000  1.0000000 )
                  (  0.0000000 -1.0000000  0.0000000 )
                  ( -1.0000000  0.0000000  0.0000000 )


      isym = 37     inv. 180 deg rotation - cart. axis [0,1,1]   

 cryst.   s(37) = (     1         -1          0      )
                  (     0         -1          0      )
                  (     0         -1          1      )

 cart.    s(37) = (  1.0000000  0.0000000  0.0000000 )
                  (  0.0000000  0.0000000 -1.0000000 )
                  (  0.0000000 -1.0000000  0.0000000 )


      isym = 38     inv. 180 deg rotation - cart. axis [0,1,-1]  

 cryst.   s(38) = (     0          0          1      )
                  (     0          1          0      )
                  (     1          0          0      )

 cart.    s(38) = (  1.0000000  0.0000000  0.0000000 )
                  (  0.0000000  0.0000000  1.0000000 )
                  (  0.0000000  1.0000000  0.0000000 )


      isym = 39     inv.  90 deg rotation - cart. axis [-1,0,0]  

 cryst.   s(39) = (     0          0         -1      )
                  (     1          0         -1      )
                  (     0          1         -1      )

 cart.    s(39) = ( -1.0000000  0.0000000  0.0000000 )
                  (  0.0000000  0.0000000 -1.0000000 )
                  (  0.0000000  1.0000000  0.0000000 )


      isym = 40     inv.  90 deg rotation - cart. axis [1,0,0]   

 cryst.   s(40) = (    -1          1          0      )
                  (    -1          0          1      )
                  (    -1          0          0      )

 cart.    s(40) = ( -1.0000000  0.0000000  0.0000000 )
                  (  0.0000000  0.0000000  1.0000000 )
                  (  0.0000000 -1.0000000  0.0000000 )


      isym = 41     inv. 120 deg rotation - cart. axis [-1,-1,-1]

 cryst.   s(41) = (     1          0         -1      )
                  (     1         -1          0      )
                  (     1          0          0      )

 cart.    s(41) = (  0.0000000 -1.0000000  0.0000000 )
                  (  0.0000000  0.0000000 -1.0000000 )
                  ( -1.0000000  0.0000000  0.0000000 )


      isym = 42     inv. 120 deg rotation - cart. axis [-1,1,1]  

 cryst.   s(42) = (     0         -1          0      )
                  (     0          0         -1      )
                  (    -1          0          0      )

 cart.    s(42) = (  0.0000000  1.0000000  0.0000000 )
                  (  0.0000000  0.0000000 -1.0000000 )
                  (  1.0000000  0.0000000  0.0000000 )


      isym = 43     inv. 120 deg rotation - cart. axis [1,1,-1]  

 cryst.   s(43) = (    -1          0          1      )
                  (     0          0          1      )
                  (     0         -1          1      )

 cart.    s(43) = (  0.0000000 -1.0000000  0.0000000 )
                  (  0.0000000  0.0000000  1.0000000 )
                  (  1.0000000  0.0000000  0.0000000 )


      isym = 44     inv. 120 deg rotation - cart. axis [1,-1,1]  

 cryst.   s(44) = (     0          1          0      )
                  (    -1          1          0      )
                  (     0          1         -1      )

 cart.    s(44) = (  0.0000000  1.0000000  0.0000000 )
                  (  0.0000000  0.0000000  1.0000000 )
                  ( -1.0000000  0.0000000  0.0000000 )


      isym = 45     inv. 120 deg rotation - cart. axis [1,1,1]   

 cryst.   s(45) = (     0          0          1      )
                  (     0         -1          1      )
                  (    -1          0          1      )

 cart.    s(45) = (  0.0000000  0.0000000 -1.0000000 )
                  ( -1.0000000  0.0000000  0.0000000 )
                  (  0.0000000 -1.0000000  0.0000000 )


      isym = 46     inv. 120 deg rotation - cart. axis [-1,1,-1] 

 cryst.   s(46) = (     1         -1          0      )
                  (     1          0          0      )
                  (     1          0         -1      )

 cart.    s(46) = (  0.0000000  0.0000000 -1.0000000 )
                  (  1.0000000  0.0000000  0.0000000 )
                  (  0.0000000  1.0000000  0.0000000 )


      isym = 47     inv. 120 deg rotation - cart. axis [1,-1,-1] 

 cryst.   s(47) = (     0          0         -1      )
                  (    -1          0          0      )
                  (     0         -1          0      )

 cart.    s(47) = (  0.0000000  0.0000000  1.0000000 )
                  (  1.0000000  0.0000000  0.0000000 )
                  (  0.0000000 -1.0000000  0.0000000 )


      isym = 48     inv. 120 deg rotation - cart. axis [-1,-1,1] 

 cryst.   s(48) = (    -1          1          0      )
                  (     0          1         -1      )
                  (     0          1          0      )

 cart.    s(48) = (  0.0000000  0.0000000  1.0000000 )
                  ( -1.0000000  0.0000000  0.0000000 )
                  (  0.0000000  1.0000000  0.0000000 )


     point group O_h (m-3m) 
     there are 10 classes
     the character table:

       E     8C3   3C2   6C4   6C2'  i     8S6   3s_h  6S4   6s_d 
A_1g   1.00  1.00  1.00  1.00  1.00  1.00  1.00  1.00  1.00  1.00
A_2g   1.00  1.00  1.00 -1.00 -1.00  1.00  1.00  1.00 -1.00 -1.00
E_g    2.00 -1.00  2.00  0.00  0.00  2.00 -1.00  2.00  0.00  0.00
T_1g   3.00  0.00 -1.00  1.00 -1.00  3.00  0.00 -1.00  1.00 -1.00
T_2g   3.00  0.00 -1.00 -1.00  1.00  3.00  0.00 -1.00 -1.00  1.00
A_1u   1.00  1.00  1.00  1.00  1.00 -1.00 -1.00 -1.00 -1.00 -1.00
A_2u   1.00  1.00  1.00 -1.00 -1.00 -1.00 -1.00 -1.00  1.00  1.00
E_u    2.00 -1.00  2.00  0.00  0.00 -2.00  1.00 -2.00  0.00  0.00
T_1u   3.00  0.00 -1.00  1.00 -1.00 -3.00  0.00  1.00 -1.00  1.00
T_2u   3.00  0.00 -1.00 -1.00  1.00 -3.00  0.00  1.00  1.00 -1.00

     the symmetry operations in each class and the name of the first element:

     E        1
          identity                                               
     8C3     17   19   20   18   24   21   22   23
          120 deg rotation - cart. axis [-1,-1,-1]               
     3C2      2    4    3
          180 deg rotation - cart. axis [0,0,1]                  
     6C4      7    8   15   16   12   11
           90 deg rotation - cart. axis [0,0,-1]                 
     6C2'     5    6   14   13   10    9
          180 deg rotation - cart. axis [1,1,0]                  
     i       25
          inversion                                              
     8S6     41   43   44   42   48   45   46   47
          inv. 120 deg rotation - cart. axis [-1,-1,-1]          
     3s_h    26   28   27
          inv. 180 deg rotation - cart. axis [0,0,1]             
     6S4     31   32   39   40   36   35
          inv.  90 deg rotation - cart. axis [0,0,-1]            
     6s_d    29   30   38   37   34   33
          inv. 180 deg rotation - cart. axis [1,1,0]             

   Cartesian axes

     site n.     atom                  positions (alat units)
         1           Pb  tau(   1) = (   0.0000000   0.0000000   0.0000000  )

   Crystallographic axes

     site n.     atom                  positions (cryst. coord.)
         1           Pb  tau(   1) = (  0.0000000  0.0000000  0.0000000  )

     number of k points=   413 (tetrahedron method)
                       cart. coord. in units 2pi/alat
        k(    1) = (   0.0000000   0.0000000   0.0000000), wk =   0.0001447
        k(    2) = (  -0.0416667   0.0416667  -0.0416667), wk =   0.0011574
        k(    3) = (  -0.0833333   0.0833333  -0.0833333), wk =   0.0011574
        k(    4) = (  -0.1250000   0.1250000  -0.1250000), wk =   0.0011574
        k(    5) = (  -0.1666667   0.1666667  -0.1666667), wk =   0.0011574
        k(    6) = (  -0.2083333   0.2083333  -0.2083333), wk =   0.0011574
        k(    7) = (  -0.2500000   0.2500000  -0.2500000), wk =   0.0011574
        k(    8) = (  -0.2916667   0.2916667  -0.2916667), wk =   0.0011574
        k(    9) = (  -0.3333333   0.3333333  -0.3333333), wk =   0.0011574
        k(   10) = (  -0.3750000   0.3750000  -0.3750000), wk =   0.0011574
        k(   11) = (  -0.4166667   0.4166667  -0.4166667), wk =   0.0011574
        k(   12) = (  -0.4583333   0.4583333  -0.4583333), wk =   0.0011574
        k(   13) = (   0.5000000  -0.5000000   0.5000000), wk =   0.0005787
        k(   14) = (   0.0000000   0.0833333   0.0000000), wk =   0.0008681
        k(   15) = (  -0.0416667   0.1250000  -0.0416667), wk =   0.0034722
        k(   16) = (  -0.0833333   0.1666667  -0.0833333), wk =   0.0034722
        k(   17) = (  -0.1250000   0.2083333  -0.1250000), wk =   0.0034722
        k(   18) = (  -0.1666667   0.2500000  -0.1666667), wk =   0.0034722
        k(   19) = (  -0.2083333   0.2916667  -0.2083333), wk =   0.0034722
        k(   20) = (  -0.2500000   0.3333333  -0.2500000), wk =   0.0034722
        k(   21) = (  -0.2916667   0.3750000  -0.2916667), wk =   0.0034722
        k(   22) = (  -0.3333333   0.4166667  -0.3333333), wk =   0.0034722
        k(   23) = (  -0.3750000   0.4583333  -0.3750000), wk =   0.0034722
        k(   24) = (  -0.4166667   0.5000000  -0.4166667), wk =   0.0034722
        k(   25) = (   0.5416667  -0.4583333   0.5416667), wk =   0.0034722
        k(   26) = (   0.5000000  -0.4166667   0.5000000), wk =   0.0034722
        k(   27) = (   0.4583333  -0.3750000   0.4583333), wk =   0.0034722
        k(   28) = (   0.4166667  -0.3333333   0.4166667), wk =   0.0034722
        k(   29) = (   0.3750000  -0.2916667   0.3750000), wk =   0.0034722
        k(   30) = (   0.3333333  -0.2500000   0.3333333), wk =   0.0034722
        k(   31) = (   0.2916667  -0.2083333   0.2916667), wk =   0.0034722
        k(   32) = (   0.2500000  -0.1666667   0.2500000), wk =   0.0034722
        k(   33) = (   0.2083333  -0.1250000   0.2083333), wk =   0.0034722
        k(   34) = (   0.1666667  -0.0833333   0.1666667), wk =   0.0034722
        k(   35) = (   0.1250000  -0.0416667   0.1250000), wk =   0.0034722
        k(   36) = (   0.0833333   0.0000000   0.0833333), wk =   0.0017361
        k(   37) = (   0.0000000   0.1666667   0.0000000), wk =   0.0008681
        k(   38) = (  -0.0416667   0.2083333  -0.0416667), wk =   0.0034722
        k(   39) = (  -0.0833333   0.2500000  -0.0833333), wk =   0.0034722
        k(   40) = (  -0.1250000   0.2916667  -0.1250000), wk =   0.0034722
        k(   41) = (  -0.1666667   0.3333333  -0.1666667), wk =   0.0034722
        k(   42) = (  -0.2083333   0.3750000  -0.2083333), wk =   0.0034722
        k(   43) = (  -0.2500000   0.4166667  -0.2500000), wk =   0.0034722
        k(   44) = (  -0.2916667   0.4583333  -0.2916667), wk =   0.0034722
        k(   45) = (  -0.3333333   0.5000000  -0.3333333), wk =   0.0034722
        k(   46) = (  -0.3750000   0.5416667  -0.3750000), wk =   0.0034722
        k(   47) = (   0.5833333  -0.4166667   0.5833333), wk =   0.0034722
        k(   48) = (   0.5416667  -0.3750000   0.5416667), wk =   0.0034722
        k(   49) = (   0.5000000  -0.3333333   0.5000000), wk =   0.0034722
        k(   50) = (   0.4583333  -0.2916667   0.4583333), wk =   0.0034722
        k(   51) = (   0.4166667  -0.2500000   0.4166667), wk =   0.0034722
        k(   52) = (   0.3750000  -0.2083333   0.3750000), wk =   0.0034722
        k(   53) = (   0.3333333  -0.1666667   0.3333333), wk =   0.0034722
        k(   54) = (   0.2916667  -0.1250000   0.2916667), wk =   0.0034722
        k(   55) = (   0.2500000  -0.0833333   0.2500000), wk =   0.0034722
        k(   56) = (   0.2083333  -0.0416667   0.2083333), wk =   0.0034722
        k(   57) = (   0.1666667  -0.0000000   0.1666667), wk =   0.0017361
        k(   58) = (   0.0000000   0.2500000   0.0000000), wk =   0.0008681
        k(   59) = (  -0.0416667   0.2916667  -0.0416667), wk =   0.0034722
        k(   60) = (  -0.0833333   0.3333333  -0.0833333), wk =   0.0034722
        k(   61) = (  -0.1250000   0.3750000  -0.1250000), wk =   0.0034722
        k(   62) = (  -0.1666667   0.4166667  -0.1666667), wk =   0.0034722
        k(   63) = (  -0.2083333   0.4583333  -0.2083333), wk =   0.0034722
        k(   64) = (  -0.2500000   0.5000000  -0.2500000), wk =   0.0034722
        k(   65) = (  -0.2916667   0.5416667  -0.2916667), wk =   0.0034722
        k(   66) = (  -0.3333333   0.5833333  -0.3333333), wk =   0.0034722
        k(   67) = (   0.6250000  -0.3750000   0.6250000), wk =   0.0034722
        k(   68) = (   0.5833333  -0.3333333   0.5833333), wk =   0.0034722
        k(   69) = (   0.5416667  -0.2916667   0.5416667), wk =   0.0034722
        k(   70) = (   0.5000000  -0.2500000   0.5000000), wk =   0.0034722
        k(   71) = (   0.4583333  -0.2083333   0.4583333), wk =   0.0034722
        k(   72) = (   0.4166667  -0.1666667   0.4166667), wk =   0.0034722
        k(   73) = (   0.3750000  -0.1250000   0.3750000), wk =   0.0034722
        k(   74) = (   0.3333333  -0.0833333   0.3333333), wk =   0.0034722
        k(   75) = (   0.2916667  -0.0416667   0.2916667), wk =   0.0034722
        k(   76) = (   0.2500000   0.0000000   0.2500000), wk =   0.0017361
        k(   77) = (   0.0000000   0.3333333   0.0000000), wk =   0.0008681
        k(   78) = (  -0.0416667   0.3750000  -0.0416667), wk =   0.0034722
        k(   79) = (  -0.0833333   0.4166667  -0.0833333), wk =   0.0034722
        k(   80) = (  -0.1250000   0.4583333  -0.1250000), wk =   0.0034722
        k(   81) = (  -0.1666667   0.5000000  -0.1666667), wk =   0.0034722
        k(   82) = (  -0.2083333   0.5416667  -0.2083333), wk =   0.0034722
        k(   83) = (  -0.2500000   0.5833333  -0.2500000), wk =   0.0034722
        k(   84) = (  -0.2916667   0.6250000  -0.2916667), wk =   0.0034722
        k(   85) = (   0.6666667  -0.3333333   0.6666667), wk =   0.0034722
        k(   86) = (   0.6250000  -0.2916667   0.6250000), wk =   0.0034722
        k(   87) = (   0.5833333  -0.2500000   0.5833333), wk =   0.0034722
        k(   88) = (   0.5416667  -0.2083333   0.5416667), wk =   0.0034722
        k(   89) = (   0.5000000  -0.1666667   0.5000000), wk =   0.0034722
        k(   90) = (   0.4583333  -0.1250000   0.4583333), wk =   0.0034722
        k(   91) = (   0.4166667  -0.0833333   0.4166667), wk =   0.0034722
        k(   92) = (   0.3750000  -0.0416667   0.3750000), wk =   0.0034722
        k(   93) = (   0.3333333   0.0000000   0.3333333), wk =   0.0017361
        k(   94) = (   0.0000000   0.4166667   0.0000000), wk =   0.0008681
        k(   95) = (  -0.0416667   0.4583333  -0.0416667), wk =   0.0034722
        k(   96) = (  -0.0833333   0.5000000  -0.0833333), wk =   0.0034722
        k(   97) = (  -0.1250000   0.5416667  -0.1250000), wk =   0.0034722
        k(   98) = (  -0.1666667   0.5833333  -0.1666667), wk =   0.0034722
        k(   99) = (  -0.2083333   0.6250000  -0.2083333), wk =   0.0034722
        k(  100) = (  -0.2500000   0.6666667  -0.2500000), wk =   0.0034722
        k(  101) = (   0.7083333  -0.2916667   0.7083333), wk =   0.0034722
        k(  102) = (   0.6666667  -0.2500000   0.6666667), wk =   0.0034722
        k(  103) = (   0.6250000  -0.2083333   0.6250000), wk =   0.0034722
        k(  104) = (   0.5833333  -0.1666667   0.5833333), wk =   0.0034722
        k(  105) = (   0.5416667  -0.1250000   0.5416667), wk =   0.0034722
        k(  106) = (   0.5000000  -0.0833333   0.5000000), wk =   0.0034722
        k(  107) = (   0.4583333  -0.0416667   0.4583333), wk =   0.0034722
        k(  108) = (   0.4166667   0.0000000   0.4166667), wk =   0.0017361
        k(  109) = (   0.0000000   0.5000000   0.0000000), wk =   0.0008681
        k(  110) = (  -0.0416667   0.5416667  -0.0416667), wk =   0.0034722
        k(  111) = (  -0.0833333   0.5833333  -0.0833333), wk =   0.0034722
        k(  112) = (  -0.1250000   0.6250000  -0.1250000), wk =   0.0034722
        k(  113) = (  -0.1666667   0.6666667  -0.1666667), wk =   0.0034722
        k(  114) = (  -0.2083333   0.7083333  -0.2083333), wk =   0.0034722
        k(  115) = (   0.7500000  -0.2500000   0.7500000), wk =   0.0034722
        k(  116) = (   0.7083333  -0.2083333   0.7083333), wk =   0.0034722
        k(  117) = (   0.6666667  -0.1666667   0.6666667), wk =   0.0034722
        k(  118) = (   0.6250000  -0.1250000   0.6250000), wk =   0.0034722
        k(  119) = (   0.5833333  -0.0833333   0.5833333), wk =   0.0034722
        k(  120) = (   0.5416667  -0.0416667   0.5416667), wk =   0.0034722
        k(  121) = (   0.5000000   0.0000000   0.5000000), wk =   0.0017361
        k(  122) = (   0.0000000   0.5833333   0.0000000), wk =   0.0008681
        k(  123) = (  -0.0416667   0.6250000  -0.0416667), wk =   0.0034722
        k(  124) = (  -0.0833333   0.6666667  -0.0833333), wk =   0.0034722
        k(  125) = (  -0.1250000   0.7083333  -0.1250000), wk =   0.0034722
        k(  126) = (  -0.1666667   0.7500000  -0.1666667), wk =   0.0034722
        k(  127) = (   0.7916667  -0.2083333   0.7916667), wk =   0.0034722
        k(  128) = (   0.7500000  -0.1666667   0.7500000), wk =   0.0034722
        k(  129) = (   0.7083333  -0.1250000   0.7083333), wk =   0.0034722
        k(  130) = (   0.6666667  -0.0833333   0.6666667), wk =   0.0034722
        k(  131) = (   0.6250000  -0.0416667   0.6250000), wk =   0.0034722
        k(  132) = (   0.5833333   0.0000000   0.5833333), wk =   0.0017361
        k(  133) = (   0.0000000   0.6666667   0.0000000), wk =   0.0008681
        k(  134) = (  -0.0416667   0.7083333  -0.0416667), wk =   0.0034722
        k(  135) = (  -0.0833333   0.7500000  -0.0833333), wk =   0.0034722
        k(  136) = (  -0.1250000   0.7916667  -0.1250000), wk =   0.0034722
        k(  137) = (   0.8333333  -0.1666667   0.8333333), wk =   0.0034722
        k(  138) = (   0.7916667  -0.1250000   0.7916667), wk =   0.0034722
        k(  139) = (   0.7500000  -0.0833333   0.7500000), wk =   0.0034722
        k(  140) = (   0.7083333  -0.0416667   0.7083333), wk =   0.0034722
        k(  141) = (   0.6666667   0.0000000   0.6666667), wk =   0.0017361
        k(  142) = (   0.0000000   0.7500000   0.0000000), wk =   0.0008681
        k(  143) = (  -0.0416667   0.7916667  -0.0416667), wk =   0.0034722
        k(  144) = (  -0.0833333   0.8333333  -0.0833333), wk =   0.0034722
        k(  145) = (   0.8750000  -0.1250000   0.8750000), wk =   0.0034722
        k(  146) = (   0.8333333  -0.0833333   0.8333333), wk =   0.0034722
        k(  147) = (   0.7916667  -0.0416667   0.7916667), wk =   0.0034722
        k(  148) = (   0.7500000   0.0000000   0.7500000), wk =   0.0017361
        k(  149) = (   0.0000000   0.8333333   0.0000000), wk =   0.0008681
        k(  150) = (  -0.0416667   0.8750000  -0.0416667), wk =   0.0034722
        k(  151) = (   0.9166667  -0.0833333   0.9166667), wk =   0.0034722
        k(  152) = (   0.8750000  -0.0416667   0.8750000), wk =   0.0034722
        k(  153) = (   0.8333333   0.0000000   0.8333333), wk =   0.0017361
        k(  154) = (   0.0000000   0.9166667   0.0000000), wk =   0.0008681
        k(  155) = (   0.9583333  -0.0416667   0.9583333), wk =   0.0034722
        k(  156) = (   0.9166667   0.0000000   0.9166667), wk =   0.0017361
        k(  157) = (   0.0000000  -1.0000000   0.0000000), wk =   0.0004340
        k(  158) = (  -0.0833333   0.1666667   0.0000000), wk =   0.0034722
        k(  159) = (  -0.1250000   0.2083333  -0.0416667), wk =   0.0069444
        k(  160) = (  -0.1666667   0.2500000  -0.0833333), wk =   0.0069444
        k(  161) = (  -0.2083333   0.2916667  -0.1250000), wk =   0.0069444
        k(  162) = (  -0.2500000   0.3333333  -0.1666667), wk =   0.0069444
        k(  163) = (  -0.2916667   0.3750000  -0.2083333), wk =   0.0069444
        k(  164) = (  -0.3333333   0.4166667  -0.2500000), wk =   0.0069444
        k(  165) = (  -0.3750000   0.4583333  -0.2916667), wk =   0.0069444
        k(  166) = (  -0.4166667   0.5000000  -0.3333333), wk =   0.0069444
        k(  167) = (   0.5416667  -0.4583333   0.6250000), wk =   0.0069444
        k(  168) = (   0.5000000  -0.4166667   0.5833333), wk =   0.0034722
        k(  169) = (  -0.0833333   0.2500000   0.0000000), wk =   0.0034722
        k(  170) = (  -0.1250000   0.2916667  -0.0416667), wk =   0.0069444
        k(  171) = (  -0.1666667   0.3333333  -0.0833333), wk =   0.0069444
        k(  172) = (  -0.2083333   0.3750000  -0.1250000), wk =   0.0069444
        k(  173) = (  -0.2500000   0.4166667  -0.1666667), wk =   0.0069444
        k(  174) = (  -0.2916667   0.4583333  -0.2083333), wk =   0.0069444
        k(  175) = (  -0.3333333   0.5000000  -0.2500000), wk =   0.0069444
        k(  176) = (  -0.3750000   0.5416667  -0.2916667), wk =   0.0069444
        k(  177) = (   0.5833333  -0.4166667   0.6666667), wk =   0.0069444
        k(  178) = (   0.5416667  -0.3750000   0.6250000), wk =   0.0069444
        k(  179) = (   0.5000000  -0.3333333   0.5833333), wk =   0.0069444
        k(  180) = (   0.4583333  -0.2916667   0.5416667), wk =   0.0069444
        k(  181) = (   0.4166667  -0.2500000   0.5000000), wk =   0.0069444
        k(  182) = (   0.3750000  -0.2083333   0.4583333), wk =   0.0069444
        k(  183) = (   0.3333333  -0.1666667   0.4166667), wk =   0.0069444
        k(  184) = (   0.2916667  -0.1250000   0.3750000), wk =   0.0069444
        k(  185) = (   0.2500000  -0.0833333   0.3333333), wk =   0.0069444
        k(  186) = (   0.2083333  -0.0416667   0.2916667), wk =   0.0069444
        k(  187) = (   0.1666667  -0.0000000   0.2500000), wk =   0.0034722
        k(  188) = (  -0.0833333   0.3333333  -0.0000000), wk =   0.0034722
        k(  189) = (  -0.1250000   0.3750000  -0.0416667), wk =   0.0069444
        k(  190) = (  -0.1666667   0.4166667  -0.0833333), wk =   0.0069444
        k(  191) = (  -0.2083333   0.4583333  -0.1250000), wk =   0.0069444
        k(  192) = (  -0.2500000   0.5000000  -0.1666667), wk =   0.0069444
        k(  193) = (  -0.2916667   0.5416667  -0.2083333), wk =   0.0069444
        k(  194) = (  -0.3333333   0.5833333  -0.2500000), wk =   0.0069444
        k(  195) = (   0.6250000  -0.3750000   0.7083333), wk =   0.0069444
        k(  196) = (   0.5833333  -0.3333333   0.6666667), wk =   0.0069444
        k(  197) = (   0.5416667  -0.2916667   0.6250000), wk =   0.0069444
        k(  198) = (   0.5000000  -0.2500000   0.5833333), wk =   0.0069444
        k(  199) = (   0.4583333  -0.2083333   0.5416667), wk =   0.0069444
        k(  200) = (   0.4166667  -0.1666667   0.5000000), wk =   0.0069444
        k(  201) = (   0.3750000  -0.1250000   0.4583333), wk =   0.0069444
        k(  202) = (   0.3333333  -0.0833333   0.4166667), wk =   0.0069444
        k(  203) = (   0.2916667  -0.0416667   0.3750000), wk =   0.0069444
        k(  204) = (   0.2500000   0.0000000   0.3333333), wk =   0.0034722
        k(  205) = (  -0.0833333   0.4166667   0.0000000), wk =   0.0034722
        k(  206) = (  -0.1250000   0.4583333  -0.0416667), wk =   0.0069444
        k(  207) = (  -0.1666667   0.5000000  -0.0833333), wk =   0.0069444
        k(  208) = (  -0.2083333   0.5416667  -0.1250000), wk =   0.0069444
        k(  209) = (  -0.2500000   0.5833333  -0.1666667), wk =   0.0069444
        k(  210) = (  -0.2916667   0.6250000  -0.2083333), wk =   0.0069444
        k(  211) = (   0.6666667  -0.3333333   0.7500000), wk =   0.0069444
        k(  212) = (   0.6250000  -0.2916667   0.7083333), wk =   0.0069444
        k(  213) = (   0.5833333  -0.2500000   0.6666667), wk =   0.0069444
        k(  214) = (   0.5416667  -0.2083333   0.6250000), wk =   0.0069444
        k(  215) = (   0.5000000  -0.1666667   0.5833333), wk =   0.0069444
        k(  216) = (   0.4583333  -0.1250000   0.5416667), wk =   0.0069444
        k(  217) = (   0.4166667  -0.0833333   0.5000000), wk =   0.0069444
        k(  218) = (   0.3750000  -0.0416667   0.4583333), wk =   0.0069444
        k(  219) = (   0.3333333   0.0000000   0.4166667), wk =   0.0034722
        k(  220) = (  -0.0833333   0.5000000   0.0000000), wk =   0.0034722
        k(  221) = (  -0.1250000   0.5416667  -0.0416667), wk =   0.0069444
        k(  222) = (  -0.1666667   0.5833333  -0.0833333), wk =   0.0069444
        k(  223) = (  -0.2083333   0.6250000  -0.1250000), wk =   0.0069444
        k(  224) = (  -0.2500000   0.6666667  -0.1666667), wk =   0.0069444
        k(  225) = (   0.7083333  -0.2916667   0.7916667), wk =   0.0069444
        k(  226) = (   0.6666667  -0.2500000   0.7500000), wk =   0.0069444
        k(  227) = (   0.6250000  -0.2083333   0.7083333), wk =   0.0069444
        k(  228) = (   0.5833333  -0.1666667   0.6666667), wk =   0.0069444
        k(  229) = (   0.5416667  -0.1250000   0.6250000), wk =   0.0069444
        k(  230) = (   0.5000000  -0.0833333   0.5833333), wk =   0.0069444
        k(  231) = (   0.4583333  -0.0416667   0.5416667), wk =   0.0069444
        k(  232) = (   0.4166667   0.0000000   0.5000000), wk =   0.0034722
        k(  233) = (  -0.0833333   0.5833333   0.0000000), wk =   0.0034722
        k(  234) = (  -0.1250000   0.6250000  -0.0416667), wk =   0.0069444
        k(  235) = (  -0.1666667   0.6666667  -0.0833333), wk =   0.0069444
        k(  236) = (  -0.2083333   0.7083333  -0.1250000), wk =   0.0069444
        k(  237) = (   0.7500000  -0.2500000   0.8333333), wk =   0.0069444
        k(  238) = (   0.7083333  -0.2083333   0.7916667), wk =   0.0069444
        k(  239) = (   0.6666667  -0.1666667   0.7500000), wk =   0.0069444
        k(  240) = (   0.6250000  -0.1250000   0.7083333), wk =   0.0069444
        k(  241) = (   0.5833333  -0.0833333   0.6666667), wk =   0.0069444
        k(  242) = (   0.5416667  -0.0416667   0.6250000), wk =   0.0069444
        k(  243) = (   0.5000000   0.0000000   0.5833333), wk =   0.0034722
        k(  244) = (  -0.0833333   0.6666667   0.0000000), wk =   0.0034722
        k(  245) = (  -0.1250000   0.7083333  -0.0416667), wk =   0.0069444
        k(  246) = (  -0.1666667   0.7500000  -0.0833333), wk =   0.0069444
        k(  247) = (   0.7916667  -0.2083333   0.8750000), wk =   0.0069444
        k(  248) = (   0.7500000  -0.1666667   0.8333333), wk =   0.0069444
        k(  249) = (   0.7083333  -0.1250000   0.7916667), wk =   0.0069444
        k(  250) = (   0.6666667  -0.0833333   0.7500000), wk =   0.0069444
        k(  251) = (   0.6250000  -0.0416667   0.7083333), wk =   0.0069444
        k(  252) = (   0.5833333   0.0000000   0.6666667), wk =   0.0034722
        k(  253) = (  -0.0833333   0.7500000   0.0000000), wk =   0.0034722
        k(  254) = (  -0.1250000   0.7916667  -0.0416667), wk =   0.0069444
        k(  255) = (   0.8333333  -0.1666667   0.9166667), wk =   0.0069444
        k(  256) = (   0.7916667  -0.1250000   0.8750000), wk =   0.0069444
        k(  257) = (   0.7500000  -0.0833333   0.8333333), wk =   0.0069444
        k(  258) = (   0.7083333  -0.0416667   0.7916667), wk =   0.0069444
        k(  259) = (   0.6666667   0.0000000   0.7500000), wk =   0.0034722
        k(  260) = (  -0.0833333   0.8333333   0.0000000), wk =   0.0034722
        k(  261) = (   0.8750000  -0.1250000   0.9583333), wk =   0.0069444
        k(  262) = (   0.8333333  -0.0833333   0.9166667), wk =   0.0069444
        k(  263) = (   0.7916667  -0.0416667   0.8750000), wk =   0.0069444
        k(  264) = (   0.7500000   0.0000000   0.8333333), wk =   0.0034722
        k(  265) = (   0.9166667  -0.0833333   1.0000000), wk =   0.0034722
        k(  266) = (   0.8750000  -0.0416667   0.9583333), wk =   0.0069444
        k(  267) = (   0.8333333   0.0000000   0.9166667), wk =   0.0034722
        k(  268) = (  -0.0833333  -1.0000000   0.0000000), wk =   0.0017361
        k(  269) = (  -0.1666667   0.3333333   0.0000000), wk =   0.0034722
        k(  270) = (  -0.2083333   0.3750000  -0.0416667), wk =   0.0069444
        k(  271) = (  -0.2500000   0.4166667  -0.0833333), wk =   0.0069444
        k(  272) = (  -0.2916667   0.4583333  -0.1250000), wk =   0.0069444
        k(  273) = (  -0.3333333   0.5000000  -0.1666667), wk =   0.0069444
        k(  274) = (  -0.3750000   0.5416667  -0.2083333), wk =   0.0069444
        k(  275) = (   0.5833333  -0.4166667   0.7500000), wk =   0.0069444
        k(  276) = (   0.5416667  -0.3750000   0.7083333), wk =   0.0069444
        k(  277) = (   0.5000000  -0.3333333   0.6666667), wk =   0.0034722
        k(  278) = (  -0.1666667   0.4166667   0.0000000), wk =   0.0034722
        k(  279) = (  -0.2083333   0.4583333  -0.0416667), wk =   0.0069444
        k(  280) = (  -0.2500000   0.5000000  -0.0833333), wk =   0.0069444
        k(  281) = (  -0.2916667   0.5416667  -0.1250000), wk =   0.0069444
        k(  282) = (  -0.3333333   0.5833333  -0.1666667), wk =   0.0069444
        k(  283) = (   0.6250000  -0.3750000   0.7916667), wk =   0.0069444
        k(  284) = (   0.5833333  -0.3333333   0.7500000), wk =   0.0069444
        k(  285) = (   0.5416667  -0.2916667   0.7083333), wk =   0.0069444
        k(  286) = (   0.5000000  -0.2500000   0.6666667), wk =   0.0069444
        k(  287) = (   0.4583333  -0.2083333   0.6250000), wk =   0.0069444
        k(  288) = (   0.4166667  -0.1666667   0.5833333), wk =   0.0069444
        k(  289) = (   0.3750000  -0.1250000   0.5416667), wk =   0.0069444
        k(  290) = (   0.3333333  -0.0833333   0.5000000), wk =   0.0069444
        k(  291) = (   0.2916667  -0.0416667   0.4583333), wk =   0.0069444
        k(  292) = (   0.2500000   0.0000000   0.4166667), wk =   0.0034722
        k(  293) = (  -0.1666667   0.5000000   0.0000000), wk =   0.0034722
        k(  294) = (  -0.2083333   0.5416667  -0.0416667), wk =   0.0069444
        k(  295) = (  -0.2500000   0.5833333  -0.0833333), wk =   0.0069444
        k(  296) = (  -0.2916667   0.6250000  -0.1250000), wk =   0.0069444
        k(  297) = (   0.6666667  -0.3333333   0.8333333), wk =   0.0069444
        k(  298) = (   0.6250000  -0.2916667   0.7916667), wk =   0.0069444
        k(  299) = (   0.5833333  -0.2500000   0.7500000), wk =   0.0069444
        k(  300) = (   0.5416667  -0.2083333   0.7083333), wk =   0.0069444
        k(  301) = (   0.5000000  -0.1666667   0.6666667), wk =   0.0069444
        k(  302) = (   0.4583333  -0.1250000   0.6250000), wk =   0.0069444
        k(  303) = (   0.4166667  -0.0833333   0.5833333), wk =   0.0069444
        k(  304) = (   0.3750000  -0.0416667   0.5416667), wk =   0.0069444
        k(  305) = (   0.3333333   0.0000000   0.5000000), wk =   0.0034722
        k(  306) = (  -0.1666667   0.5833333   0.0000000), wk =   0.0034722
        k(  307) = (  -0.2083333   0.6250000  -0.0416667), wk =   0.0069444
        k(  308) = (  -0.2500000   0.6666667  -0.0833333), wk =   0.0069444
        k(  309) = (   0.7083333  -0.2916667   0.8750000), wk =   0.0069444
        k(  310) = (   0.6666667  -0.2500000   0.8333333), wk =   0.0069444
        k(  311) = (   0.6250000  -0.2083333   0.7916667), wk =   0.0069444
        k(  312) = (   0.5833333  -0.1666667   0.7500000), wk =   0.0069444
        k(  313) = (   0.5416667  -0.1250000   0.7083333), wk =   0.0069444
        k(  314) = (   0.5000000  -0.0833333   0.6666667), wk =   0.0069444
        k(  315) = (   0.4583333  -0.0416667   0.6250000), wk =   0.0069444
        k(  316) = (   0.4166667   0.0000000   0.5833333), wk =   0.0034722
        k(  317) = (  -0.1666667   0.6666667  -0.0000000), wk =   0.0034722
        k(  318) = (  -0.2083333   0.7083333  -0.0416667), wk =   0.0069444
        k(  319) = (   0.7500000  -0.2500000   0.9166667), wk =   0.0069444
        k(  320) = (   0.7083333  -0.2083333   0.8750000), wk =   0.0069444
        k(  321) = (   0.6666667  -0.1666667   0.8333333), wk =   0.0069444
        k(  322) = (   0.6250000  -0.1250000   0.7916667), wk =   0.0069444
        k(  323) = (   0.5833333  -0.0833333   0.7500000), wk =   0.0069444
        k(  324) = (   0.5416667  -0.0416667   0.7083333), wk =   0.0069444
        k(  325) = (   0.5000000   0.0000000   0.6666667), wk =   0.0034722
        k(  326) = (  -0.1666667   0.7500000   0.0000000), wk =   0.0034722
        k(  327) = (   0.7916667  -0.2083333   0.9583333), wk =   0.0069444
        k(  328) = (   0.7500000  -0.1666667   0.9166667), wk =   0.0069444
        k(  329) = (   0.7083333  -0.1250000   0.8750000), wk =   0.0069444
        k(  330) = (   0.6666667  -0.0833333   0.8333333), wk =   0.0069444
        k(  331) = (   0.6250000  -0.0416667   0.7916667), wk =   0.0069444
        k(  332) = (   0.5833333   0.0000000   0.7500000), wk =   0.0034722
        k(  333) = (   0.8333333  -0.1666667   1.0000000), wk =   0.0034722
        k(  334) = (   0.7916667  -0.1250000   0.9583333), wk =   0.0069444
        k(  335) = (   0.7500000  -0.0833333   0.9166667), wk =   0.0069444
        k(  336) = (   0.7083333  -0.0416667   0.8750000), wk =   0.0069444
        k(  337) = (   0.6666667   0.0000000   0.8333333), wk =   0.0034722
        k(  338) = (   0.8333333  -0.0833333   1.0000000), wk =   0.0034722
        k(  339) = (   0.7916667  -0.0416667   0.9583333), wk =   0.0069444
        k(  340) = (   0.7500000   0.0000000   0.9166667), wk =   0.0034722
        k(  341) = (  -0.1666667  -1.0000000   0.0000000), wk =   0.0017361
        k(  342) = (  -0.2500000   0.5000000   0.0000000), wk =   0.0034722
        k(  343) = (  -0.2916667   0.5416667  -0.0416667), wk =   0.0069444
        k(  344) = (  -0.3333333   0.5833333  -0.0833333), wk =   0.0069444
        k(  345) = (   0.6250000  -0.3750000   0.8750000), wk =   0.0069444
        k(  346) = (   0.5833333  -0.3333333   0.8333333), wk =   0.0069444
        k(  347) = (   0.5416667  -0.2916667   0.7916667), wk =   0.0069444
        k(  348) = (   0.5000000  -0.2500000   0.7500000), wk =   0.0034722
        k(  349) = (  -0.2500000   0.5833333   0.0000000), wk =   0.0034722
        k(  350) = (  -0.2916667   0.6250000  -0.0416667), wk =   0.0069444
        k(  351) = (   0.6666667  -0.3333333   0.9166667), wk =   0.0069444
        k(  352) = (   0.6250000  -0.2916667   0.8750000), wk =   0.0069444
        k(  353) = (   0.5833333  -0.2500000   0.8333333), wk =   0.0069444
        k(  354) = (   0.5416667  -0.2083333   0.7916667), wk =   0.0069444
        k(  355) = (   0.5000000  -0.1666667   0.7500000), wk =   0.0069444
        k(  356) = (   0.4583333  -0.1250000   0.7083333), wk =   0.0069444
        k(  357) = (   0.4166667  -0.0833333   0.6666667), wk =   0.0069444
        k(  358) = (   0.3750000  -0.0416667   0.6250000), wk =   0.0069444
        k(  359) = (   0.3333333   0.0000000   0.5833333), wk =   0.0034722
        k(  360) = (  -0.2500000   0.6666667   0.0000000), wk =   0.0034722
        k(  361) = (   0.7083333  -0.2916667   0.9583333), wk =   0.0069444
        k(  362) = (   0.6666667  -0.2500000   0.9166667), wk =   0.0069444
        k(  363) = (   0.6250000  -0.2083333   0.8750000), wk =   0.0069444
        k(  364) = (   0.5833333  -0.1666667   0.8333333), wk =   0.0069444
        k(  365) = (   0.5416667  -0.1250000   0.7916667), wk =   0.0069444
        k(  366) = (   0.5000000  -0.0833333   0.7500000), wk =   0.0069444
        k(  367) = (   0.4583333  -0.0416667   0.7083333), wk =   0.0069444
        k(  368) = (   0.4166667  -0.0000000   0.6666667), wk =   0.0034722
        k(  369) = (   0.7500000  -0.2500000   1.0000000), wk =   0.0034722
        k(  370) = (   0.7083333  -0.2083333   0.9583333), wk =   0.0069444
        k(  371) = (   0.6666667  -0.1666667   0.9166667), wk =   0.0069444
        k(  372) = (   0.6250000  -0.1250000   0.8750000), wk =   0.0069444
        k(  373) = (   0.5833333  -0.0833333   0.8333333), wk =   0.0069444
        k(  374) = (   0.5416667  -0.0416667   0.7916667), wk =   0.0069444
        k(  375) = (   0.5000000   0.0000000   0.7500000), wk =   0.0034722
        k(  376) = (   0.7500000  -0.1666667   1.0000000), wk =   0.0034722
        k(  377) = (   0.7083333  -0.1250000   0.9583333), wk =   0.0069444
        k(  378) = (   0.6666667  -0.0833333   0.9166667), wk =   0.0069444
        k(  379) = (   0.6250000  -0.0416667   0.8750000), wk =   0.0069444
        k(  380) = (   0.5833333   0.0000000   0.8333333), wk =   0.0034722
        k(  381) = (   0.7500000  -0.0833333   1.0000000), wk =   0.0034722
        k(  382) = (   0.7083333  -0.0416667   0.9583333), wk =   0.0069444
        k(  383) = (   0.6666667  -0.0000000   0.9166667), wk =   0.0034722
        k(  384) = (  -0.2500000  -1.0000000   0.0000000), wk =   0.0017361
        k(  385) = (   0.6666667  -0.3333333   1.0000000), wk =   0.0034722
        k(  386) = (   0.6250000  -0.2916667   0.9583333), wk =   0.0069444
        k(  387) = (   0.5833333  -0.2500000   0.9166667), wk =   0.0069444
        k(  388) = (   0.5416667  -0.2083333   0.8750000), wk =   0.0069444
        k(  389) = (   0.5000000  -0.1666667   0.8333333), wk =   0.0034722
        k(  390) = (   0.6666667  -0.2500000   1.0000000), wk =   0.0034722
        k(  391) = (   0.6250000  -0.2083333   0.9583333), wk =   0.0069444
        k(  392) = (   0.5833333  -0.1666667   0.9166667), wk =   0.0069444
        k(  393) = (   0.5416667  -0.1250000   0.8750000), wk =   0.0069444
        k(  394) = (   0.5000000  -0.0833333   0.8333333), wk =   0.0069444
        k(  395) = (   0.4583333  -0.0416667   0.7916667), wk =   0.0069444
        k(  396) = (   0.4166667   0.0000000   0.7500000), wk =   0.0034722
        k(  397) = (   0.6666667  -0.1666667   1.0000000), wk =   0.0034722
        k(  398) = (   0.6250000  -0.1250000   0.9583333), wk =   0.0069444
        k(  399) = (   0.5833333  -0.0833333   0.9166667), wk =   0.0069444
        k(  400) = (   0.5416667  -0.0416667   0.8750000), wk =   0.0069444
        k(  401) = (   0.5000000   0.0000000   0.8333333), wk =   0.0034722
        k(  402) = (   0.6666667  -0.0833333   1.0000000), wk =   0.0034722
        k(  403) = (   0.6250000  -0.0416667   0.9583333), wk =   0.0069444
        k(  404) = (   0.5833333   0.0000000   0.9166667), wk =   0.0034722
        k(  405) = (  -0.3333333  -1.0000000   0.0000000), wk =   0.0017361
        k(  406) = (   0.5833333  -0.1666667   1.0000000), wk =   0.0034722
        k(  407) = (   0.5416667  -0.1250000   0.9583333), wk =   0.0069444
        k(  408) = (   0.5000000  -0.0833333   0.9166667), wk =   0.0034722
        k(  409) = (   0.5833333  -0.0833333   1.0000000), wk =   0.0034722
        k(  410) = (   0.5416667  -0.0416667   0.9583333), wk =   0.0069444
        k(  411) = (   0.5000000   0.0000000   0.9166667), wk =   0.0034722
        k(  412) = (  -0.4166667  -1.0000000   0.0000000), wk =   0.0017361
        k(  413) = (  -0.5000000  -1.0000000   0.0000000), wk =   0.0008681

                       cryst. coord.
        k(    1) = (   0.0000000   0.0000000   0.0000000), wk =   0.0001447
        k(    2) = (   0.0000000   0.0000000   0.0416667), wk =   0.0011574
        k(    3) = (   0.0000000   0.0000000   0.0833333), wk =   0.0011574
        k(    4) = (   0.0000000   0.0000000   0.1250000), wk =   0.0011574
        k(    5) = (   0.0000000   0.0000000   0.1666667), wk =   0.0011574
        k(    6) = (   0.0000000   0.0000000   0.2083333), wk =   0.0011574
        k(    7) = (   0.0000000   0.0000000   0.2500000), wk =   0.0011574
        k(    8) = (   0.0000000   0.0000000   0.2916667), wk =   0.0011574
        k(    9) = (   0.0000000   0.0000000   0.3333333), wk =   0.0011574
        k(   10) = (   0.0000000   0.0000000   0.3750000), wk =   0.0011574
        k(   11) = (   0.0000000   0.0000000   0.4166667), wk =   0.0011574
        k(   12) = (   0.0000000   0.0000000   0.4583333), wk =   0.0011574
        k(   13) = (   0.0000000   0.0000000  -0.5000000), wk =   0.0005787
        k(   14) = (   0.0000000   0.0416667   0.0416667), wk =   0.0008681
        k(   15) = (   0.0000000   0.0416667   0.0833333), wk =   0.0034722
        k(   16) = (   0.0000000   0.0416667   0.1250000), wk =   0.0034722
        k(   17) = (   0.0000000   0.0416667   0.1666667), wk =   0.0034722
        k(   18) = (   0.0000000   0.0416667   0.2083333), wk =   0.0034722
        k(   19) = (   0.0000000   0.0416667   0.2500000), wk =   0.0034722
        k(   20) = (   0.0000000   0.0416667   0.2916667), wk =   0.0034722
        k(   21) = (   0.0000000   0.0416667   0.3333333), wk =   0.0034722
        k(   22) = (   0.0000000   0.0416667   0.3750000), wk =   0.0034722
        k(   23) = (   0.0000000   0.0416667   0.4166667), wk =   0.0034722
        k(   24) = (   0.0000000   0.0416667   0.4583333), wk =   0.0034722
        k(   25) = (   0.0000000   0.0416667  -0.5000000), wk =   0.0034722
        k(   26) = (   0.0000000   0.0416667  -0.4583333), wk =   0.0034722
        k(   27) = (   0.0000000   0.0416667  -0.4166667), wk =   0.0034722
        k(   28) = (   0.0000000   0.0416667  -0.3750000), wk =   0.0034722
        k(   29) = (   0.0000000   0.0416667  -0.3333333), wk =   0.0034722
        k(   30) = (   0.0000000   0.0416667  -0.2916667), wk =   0.0034722
        k(   31) = (   0.0000000   0.0416667  -0.2500000), wk =   0.0034722
        k(   32) = (   0.0000000   0.0416667  -0.2083333), wk =   0.0034722
        k(   33) = (   0.0000000   0.0416667  -0.1666667), wk =   0.0034722
        k(   34) = (   0.0000000   0.0416667  -0.1250000), wk =   0.0034722
        k(   35) = (   0.0000000   0.0416667  -0.0833333), wk =   0.0034722
        k(   36) = (   0.0000000   0.0416667  -0.0416667), wk =   0.0017361
        k(   37) = (   0.0000000   0.0833333   0.0833333), wk =   0.0008681
        k(   38) = (   0.0000000   0.0833333   0.1250000), wk =   0.0034722
        k(   39) = (   0.0000000   0.0833333   0.1666667), wk =   0.0034722
        k(   40) = (   0.0000000   0.0833333   0.2083333), wk =   0.0034722
        k(   41) = (   0.0000000   0.0833333   0.2500000), wk =   0.0034722
        k(   42) = (   0.0000000   0.0833333   0.2916667), wk =   0.0034722
        k(   43) = (   0.0000000   0.0833333   0.3333333), wk =   0.0034722
        k(   44) = (   0.0000000   0.0833333   0.3750000), wk =   0.0034722
        k(   45) = (   0.0000000   0.0833333   0.4166667), wk =   0.0034722
        k(   46) = (   0.0000000   0.0833333   0.4583333), wk =   0.0034722
        k(   47) = (   0.0000000   0.0833333  -0.5000000), wk =   0.0034722
        k(   48) = (   0.0000000   0.0833333  -0.4583333), wk =   0.0034722
        k(   49) = (   0.0000000   0.0833333  -0.4166667), wk =   0.0034722
        k(   50) = (   0.0000000   0.0833333  -0.3750000), wk =   0.0034722
        k(   51) = (   0.0000000   0.0833333  -0.3333333), wk =   0.0034722
        k(   52) = (   0.0000000   0.0833333  -0.2916667), wk =   0.0034722
        k(   53) = (   0.0000000   0.0833333  -0.2500000), wk =   0.0034722
        k(   54) = (   0.0000000   0.0833333  -0.2083333), wk =   0.0034722
        k(   55) = (   0.0000000   0.0833333  -0.1666667), wk =   0.0034722
        k(   56) = (   0.0000000   0.0833333  -0.1250000), wk =   0.0034722
        k(   57) = (   0.0000000   0.0833333  -0.0833333), wk =   0.0017361
        k(   58) = (   0.0000000   0.1250000   0.1250000), wk =   0.0008681
        k(   59) = (   0.0000000   0.1250000   0.1666667), wk =   0.0034722
        k(   60) = (   0.0000000   0.1250000   0.2083333), wk =   0.0034722
        k(   61) = (   0.0000000   0.1250000   0.2500000), wk =   0.0034722
        k(   62) = (   0.0000000   0.1250000   0.2916667), wk =   0.0034722
        k(   63) = (   0.0000000   0.1250000   0.3333333), wk =   0.0034722
        k(   64) = (   0.0000000   0.1250000   0.3750000), wk =   0.0034722
        k(   65) = (   0.0000000   0.1250000   0.4166667), wk =   0.0034722
        k(   66) = (   0.0000000   0.1250000   0.4583333), wk =   0.0034722
        k(   67) = (   0.0000000   0.1250000  -0.5000000), wk =   0.0034722
        k(   68) = (   0.0000000   0.1250000  -0.4583333), wk =   0.0034722
        k(   69) = (   0.0000000   0.1250000  -0.4166667), wk =   0.0034722
        k(   70) = (   0.0000000   0.1250000  -0.3750000), wk =   0.0034722
        k(   71) = (   0.0000000   0.1250000  -0.3333333), wk =   0.0034722
        k(   72) = (   0.0000000   0.1250000  -0.2916667), wk =   0.0034722
        k(   73) = (   0.0000000   0.1250000  -0.2500000), wk =   0.0034722
        k(   74) = (   0.0000000   0.1250000  -0.2083333), wk =   0.0034722
        k(   75) = (   0.0000000   0.1250000  -0.1666667), wk =   0.0034722
        k(   76) = (   0.0000000   0.1250000  -0.1250000), wk =   0.0017361
        k(   77) = (   0.0000000   0.1666667   0.1666667), wk =   0.0008681
        k(   78) = (   0.0000000   0.1666667   0.2083333), wk =   0.0034722
        k(   79) = (   0.0000000   0.1666667   0.2500000), wk =   0.0034722
        k(   80) = (   0.0000000   0.1666667   0.2916667), wk =   0.0034722
        k(   81) = (   0.0000000   0.1666667   0.3333333), wk =   0.0034722
        k(   82) = (   0.0000000   0.1666667   0.3750000), wk =   0.0034722
        k(   83) = (   0.0000000   0.1666667   0.4166667), wk =   0.0034722
        k(   84) = (   0.0000000   0.1666667   0.4583333), wk =   0.0034722
        k(   85) = (   0.0000000   0.1666667  -0.5000000), wk =   0.0034722
        k(   86) = (   0.0000000   0.1666667  -0.4583333), wk =   0.0034722
        k(   87) = (   0.0000000   0.1666667  -0.4166667), wk =   0.0034722
        k(   88) = (   0.0000000   0.1666667  -0.3750000), wk =   0.0034722
        k(   89) = (   0.0000000   0.1666667  -0.3333333), wk =   0.0034722
        k(   90) = (   0.0000000   0.1666667  -0.2916667), wk =   0.0034722
        k(   91) = (   0.0000000   0.1666667  -0.2500000), wk =   0.0034722
        k(   92) = (   0.0000000   0.1666667  -0.2083333), wk =   0.0034722
        k(   93) = (   0.0000000   0.1666667  -0.1666667), wk =   0.0017361
        k(   94) = (   0.0000000   0.2083333   0.2083333), wk =   0.0008681
        k(   95) = (   0.0000000   0.2083333   0.2500000), wk =   0.0034722
        k(   96) = (   0.0000000   0.2083333   0.2916667), wk =   0.0034722
        k(   97) = (   0.0000000   0.2083333   0.3333333), wk =   0.0034722
        k(   98) = (   0.0000000   0.2083333   0.3750000), wk =   0.0034722
        k(   99) = (   0.0000000   0.2083333   0.4166667), wk =   0.0034722
        k(  100) = (   0.0000000   0.2083333   0.4583333), wk =   0.0034722
        k(  101) = (   0.0000000   0.2083333  -0.5000000), wk =   0.0034722
        k(  102) = (   0.0000000   0.2083333  -0.4583333), wk =   0.0034722
        k(  103) = (   0.0000000   0.2083333  -0.4166667), wk =   0.0034722
        k(  104) = (   0.0000000   0.2083333  -0.3750000), wk =   0.0034722
        k(  105) = (   0.0000000   0.2083333  -0.3333333), wk =   0.0034722
        k(  106) = (   0.0000000   0.2083333  -0.2916667), wk =   0.0034722
        k(  107) = (   0.0000000   0.2083333  -0.2500000), wk =   0.0034722
        k(  108) = (   0.0000000   0.2083333  -0.2083333), wk =   0.0017361
        k(  109) = (   0.0000000   0.2500000   0.2500000), wk =   0.0008681
        k(  110) = (   0.0000000   0.2500000   0.2916667), wk =   0.0034722
        k(  111) = (   0.0000000   0.2500000   0.3333333), wk =   0.0034722
        k(  112) = (   0.0000000   0.2500000   0.3750000), wk =   0.0034722
        k(  113) = (   0.0000000   0.2500000   0.4166667), wk =   0.0034722
        k(  114) = (   0.0000000   0.2500000   0.4583333), wk =   0.0034722
        k(  115) = (   0.0000000   0.2500000  -0.5000000), wk =   0.0034722
        k(  116) = (   0.0000000   0.2500000  -0.4583333), wk =   0.0034722
        k(  117) = (   0.0000000   0.2500000  -0.4166667), wk =   0.0034722
        k(  118) = (   0.0000000   0.2500000  -0.3750000), wk =   0.0034722
        k(  119) = (   0.0000000   0.2500000  -0.3333333), wk =   0.0034722
        k(  120) = (   0.0000000   0.2500000  -0.2916667), wk =   0.0034722
        k(  121) = (   0.0000000   0.2500000  -0.2500000), wk =   0.0017361
        k(  122) = (   0.0000000   0.2916667   0.2916667), wk =   0.0008681
        k(  123) = (   0.0000000   0.2916667   0.3333333), wk =   0.0034722
        k(  124) = (   0.0000000   0.2916667   0.3750000), wk =   0.0034722
        k(  125) = (   0.0000000   0.2916667   0.4166667), wk =   0.0034722
        k(  126) = (   0.0000000   0.2916667   0.4583333), wk =   0.0034722
        k(  127) = (   0.0000000   0.2916667  -0.5000000), wk =   0.0034722
        k(  128) = (   0.0000000   0.2916667  -0.4583333), wk =   0.0034722
        k(  129) = (   0.0000000   0.2916667  -0.4166667), wk =   0.0034722
        k(  130) = (   0.0000000   0.2916667  -0.3750000), wk =   0.0034722
        k(  131) = (   0.0000000   0.2916667  -0.3333333), wk =   0.0034722
        k(  132) = (   0.0000000   0.2916667  -0.2916667), wk =   0.0017361
        k(  133) = (   0.0000000   0.3333333   0.3333333), wk =   0.0008681
        k(  134) = (   0.0000000   0.3333333   0.3750000), wk =   0.0034722
        k(  135) = (   0.0000000   0.3333333   0.4166667), wk =   0.0034722
        k(  136) = (   0.0000000   0.3333333   0.4583333), wk =   0.0034722
        k(  137) = (   0.0000000   0.3333333  -0.5000000), wk =   0.0034722
        k(  138) = (   0.0000000   0.3333333  -0.4583333), wk =   0.0034722
        k(  139) = (   0.0000000   0.3333333  -0.4166667), wk =   0.0034722
        k(  140) = (   0.0000000   0.3333333  -0.3750000), wk =   0.0034722
        k(  141) = (   0.0000000   0.3333333  -0.3333333), wk =   0.0017361
        k(  142) = (   0.0000000   0.3750000   0.3750000), wk =   0.0008681
        k(  143) = (   0.0000000   0.3750000   0.4166667), wk =   0.0034722
        k(  144) = (   0.0000000   0.3750000   0.4583333), wk =   0.0034722
        k(  145) = (   0.0000000   0.3750000  -0.5000000), wk =   0.0034722
        k(  146) = (   0.0000000   0.3750000  -0.4583333), wk =   0.0034722
        k(  147) = (   0.0000000   0.3750000  -0.4166667), wk =   0.0034722
        k(  148) = (   0.0000000   0.3750000  -0.3750000), wk =   0.0017361
        k(  149) = (   0.0000000   0.4166667   0.4166667), wk =   0.0008681
        k(  150) = (   0.0000000   0.4166667   0.4583333), wk =   0.0034722
        k(  151) = (   0.0000000   0.4166667  -0.5000000), wk =   0.0034722
        k(  152) = (   0.0000000   0.4166667  -0.4583333), wk =   0.0034722
        k(  153) = (   0.0000000   0.4166667  -0.4166667), wk =   0.0017361
        k(  154) = (   0.0000000   0.4583333   0.4583333), wk =   0.0008681
        k(  155) = (   0.0000000   0.4583333  -0.5000000), wk =   0.0034722
        k(  156) = (   0.0000000   0.4583333  -0.4583333), wk =   0.0017361
        k(  157) = (   0.0000000  -0.5000000  -0.5000000), wk =   0.0004340
        k(  158) = (   0.0416667   0.0833333   0.1250000), wk =   0.0034722
        k(  159) = (   0.0416667   0.0833333   0.1666667), wk =   0.0069444
        k(  160) = (   0.0416667   0.0833333   0.2083333), wk =   0.0069444
        k(  161) = (   0.0416667   0.0833333   0.2500000), wk =   0.0069444
        k(  162) = (   0.0416667   0.0833333   0.2916667), wk =   0.0069444
        k(  163) = (   0.0416667   0.0833333   0.3333333), wk =   0.0069444
        k(  164) = (   0.0416667   0.0833333   0.3750000), wk =   0.0069444
        k(  165) = (   0.0416667   0.0833333   0.4166667), wk =   0.0069444
        k(  166) = (   0.0416667   0.0833333   0.4583333), wk =   0.0069444
        k(  167) = (   0.0416667   0.0833333  -0.5000000), wk =   0.0069444
        k(  168) = (   0.0416667   0.0833333  -0.4583333), wk =   0.0034722
        k(  169) = (   0.0416667   0.1250000   0.1666667), wk =   0.0034722
        k(  170) = (   0.0416667   0.1250000   0.2083333), wk =   0.0069444
        k(  171) = (   0.0416667   0.1250000   0.2500000), wk =   0.0069444
        k(  172) = (   0.0416667   0.1250000   0.2916667), wk =   0.0069444
        k(  173) = (   0.0416667   0.1250000   0.3333333), wk =   0.0069444
        k(  174) = (   0.0416667   0.1250000   0.3750000), wk =   0.0069444
        k(  175) = (   0.0416667   0.1250000   0.4166667), wk =   0.0069444
        k(  176) = (   0.0416667   0.1250000   0.4583333), wk =   0.0069444
        k(  177) = (   0.0416667   0.1250000  -0.5000000), wk =   0.0069444
        k(  178) = (   0.0416667   0.1250000  -0.4583333), wk =   0.0069444
        k(  179) = (   0.0416667   0.1250000  -0.4166667), wk =   0.0069444
        k(  180) = (   0.0416667   0.1250000  -0.3750000), wk =   0.0069444
        k(  181) = (   0.0416667   0.1250000  -0.3333333), wk =   0.0069444
        k(  182) = (   0.0416667   0.1250000  -0.2916667), wk =   0.0069444
        k(  183) = (   0.0416667   0.1250000  -0.2500000), wk =   0.0069444
        k(  184) = (   0.0416667   0.1250000  -0.2083333), wk =   0.0069444
        k(  185) = (   0.0416667   0.1250000  -0.1666667), wk =   0.0069444
        k(  186) = (   0.0416667   0.1250000  -0.1250000), wk =   0.0069444
        k(  187) = (   0.0416667   0.1250000  -0.0833333), wk =   0.0034722
        k(  188) = (   0.0416667   0.1666667   0.2083333), wk =   0.0034722
        k(  189) = (   0.0416667   0.1666667   0.2500000), wk =   0.0069444
        k(  190) = (   0.0416667   0.1666667   0.2916667), wk =   0.0069444
        k(  191) = (   0.0416667   0.1666667   0.3333333), wk =   0.0069444
        k(  192) = (   0.0416667   0.1666667   0.3750000), wk =   0.0069444
        k(  193) = (   0.0416667   0.1666667   0.4166667), wk =   0.0069444
        k(  194) = (   0.0416667   0.1666667   0.4583333), wk =   0.0069444
        k(  195) = (   0.0416667   0.1666667  -0.5000000), wk =   0.0069444
        k(  196) = (   0.0416667   0.1666667  -0.4583333), wk =   0.0069444
        k(  197) = (   0.0416667   0.1666667  -0.4166667), wk =   0.0069444
        k(  198) = (   0.0416667   0.1666667  -0.3750000), wk =   0.0069444
        k(  199) = (   0.0416667   0.1666667  -0.3333333), wk =   0.0069444
        k(  200) = (   0.0416667   0.1666667  -0.2916667), wk =   0.0069444
        k(  201) = (   0.0416667   0.1666667  -0.2500000), wk =   0.0069444
        k(  202) = (   0.0416667   0.1666667  -0.2083333), wk =   0.0069444
        k(  203) = (   0.0416667   0.1666667  -0.1666667), wk =   0.0069444
        k(  204) = (   0.0416667   0.1666667  -0.1250000), wk =   0.0034722
        k(  205) = (   0.0416667   0.2083333   0.2500000), wk =   0.0034722
        k(  206) = (   0.0416667   0.2083333   0.2916667), wk =   0.0069444
        k(  207) = (   0.0416667   0.2083333   0.3333333), wk =   0.0069444
        k(  208) = (   0.0416667   0.2083333   0.3750000), wk =   0.0069444
        k(  209) = (   0.0416667   0.2083333   0.4166667), wk =   0.0069444
        k(  210) = (   0.0416667   0.2083333   0.4583333), wk =   0.0069444
        k(  211) = (   0.0416667   0.2083333  -0.5000000), wk =   0.0069444
        k(  212) = (   0.0416667   0.2083333  -0.4583333), wk =   0.0069444
        k(  213) = (   0.0416667   0.2083333  -0.4166667), wk =   0.0069444
        k(  214) = (   0.0416667   0.2083333  -0.3750000), wk =   0.0069444
        k(  215) = (   0.0416667   0.2083333  -0.3333333), wk =   0.0069444
        k(  216) = (   0.0416667   0.2083333  -0.2916667), wk =   0.0069444
        k(  217) = (   0.0416667   0.2083333  -0.2500000), wk =   0.0069444
        k(  218) = (   0.0416667   0.2083333  -0.2083333), wk =   0.0069444
        k(  219) = (   0.0416667   0.2083333  -0.1666667), wk =   0.0034722
        k(  220) = (   0.0416667   0.2500000   0.2916667), wk =   0.0034722
        k(  221) = (   0.0416667   0.2500000   0.3333333), wk =   0.0069444
        k(  222) = (   0.0416667   0.2500000   0.3750000), wk =   0.0069444
        k(  223) = (   0.0416667   0.2500000   0.4166667), wk =   0.0069444
        k(  224) = (   0.0416667   0.2500000   0.4583333), wk =   0.0069444
        k(  225) = (   0.0416667   0.2500000  -0.5000000), wk =   0.0069444
        k(  226) = (   0.0416667   0.2500000  -0.4583333), wk =   0.0069444
        k(  227) = (   0.0416667   0.2500000  -0.4166667), wk =   0.0069444
        k(  228) = (   0.0416667   0.2500000  -0.3750000), wk =   0.0069444
        k(  229) = (   0.0416667   0.2500000  -0.3333333), wk =   0.0069444
        k(  230) = (   0.0416667   0.2500000  -0.2916667), wk =   0.0069444
        k(  231) = (   0.0416667   0.2500000  -0.2500000), wk =   0.0069444
        k(  232) = (   0.0416667   0.2500000  -0.2083333), wk =   0.0034722
        k(  233) = (   0.0416667   0.2916667   0.3333333), wk =   0.0034722
        k(  234) = (   0.0416667   0.2916667   0.3750000), wk =   0.0069444
        k(  235) = (   0.0416667   0.2916667   0.4166667), wk =   0.0069444
        k(  236) = (   0.0416667   0.2916667   0.4583333), wk =   0.0069444
        k(  237) = (   0.0416667   0.2916667  -0.5000000), wk =   0.0069444
        k(  238) = (   0.0416667   0.2916667  -0.4583333), wk =   0.0069444
        k(  239) = (   0.0416667   0.2916667  -0.4166667), wk =   0.0069444
        k(  240) = (   0.0416667   0.2916667  -0.3750000), wk =   0.0069444
        k(  241) = (   0.0416667   0.2916667  -0.3333333), wk =   0.0069444
        k(  242) = (   0.0416667   0.2916667  -0.2916667), wk =   0.0069444
        k(  243) = (   0.0416667   0.2916667  -0.2500000), wk =   0.0034722
        k(  244) = (   0.0416667   0.3333333   0.3750000), wk =   0.0034722
        k(  245) = (   0.0416667   0.3333333   0.4166667), wk =   0.0069444
        k(  246) = (   0.0416667   0.3333333   0.4583333), wk =   0.0069444
        k(  247) = (   0.0416667   0.3333333  -0.5000000), wk =   0.0069444
        k(  248) = (   0.0416667   0.3333333  -0.4583333), wk =   0.0069444
        k(  249) = (   0.0416667   0.3333333  -0.4166667), wk =   0.0069444
        k(  250) = (   0.0416667   0.3333333  -0.3750000), wk =   0.0069444
        k(  251) = (   0.0416667   0.3333333  -0.3333333), wk =   0.0069444
        k(  252) = (   0.0416667   0.3333333  -0.2916667), wk =   0.0034722
        k(  253) = (   0.0416667   0.3750000   0.4166667), wk =   0.0034722
        k(  254) = (   0.0416667   0.3750000   0.4583333), wk =   0.0069444
        k(  255) = (   0.0416667   0.3750000  -0.5000000), wk =   0.0069444
        k(  256) = (   0.0416667   0.3750000  -0.4583333), wk =   0.0069444
        k(  257) = (   0.0416667   0.3750000  -0.4166667), wk =   0.0069444
        k(  258) = (   0.0416667   0.3750000  -0.3750000), wk =   0.0069444
        k(  259) = (   0.0416667   0.3750000  -0.3333333), wk =   0.0034722
        k(  260) = (   0.0416667   0.4166667   0.4583333), wk =   0.0034722
        k(  261) = (   0.0416667   0.4166667  -0.5000000), wk =   0.0069444
        k(  262) = (   0.0416667   0.4166667  -0.4583333), wk =   0.0069444
        k(  263) = (   0.0416667   0.4166667  -0.4166667), wk =   0.0069444
        k(  264) = (   0.0416667   0.4166667  -0.3750000), wk =   0.0034722
        k(  265) = (   0.0416667   0.4583333  -0.5000000), wk =   0.0034722
        k(  266) = (   0.0416667   0.4583333  -0.4583333), wk =   0.0069444
        k(  267) = (   0.0416667   0.4583333  -0.4166667), wk =   0.0034722
        k(  268) = (   0.0416667  -0.5000000  -0.4583333), wk =   0.0017361
        k(  269) = (   0.0833333   0.1666667   0.2500000), wk =   0.0034722
        k(  270) = (   0.0833333   0.1666667   0.2916667), wk =   0.0069444
        k(  271) = (   0.0833333   0.1666667   0.3333333), wk =   0.0069444
        k(  272) = (   0.0833333   0.1666667   0.3750000), wk =   0.0069444
        k(  273) = (   0.0833333   0.1666667   0.4166667), wk =   0.0069444
        k(  274) = (   0.0833333   0.1666667   0.4583333), wk =   0.0069444
        k(  275) = (   0.0833333   0.1666667  -0.5000000), wk =   0.0069444
        k(  276) = (   0.0833333   0.1666667  -0.4583333), wk =   0.0069444
        k(  277) = (   0.0833333   0.1666667  -0.4166667), wk =   0.0034722
        k(  278) = (   0.0833333   0.2083333   0.2916667), wk =   0.0034722
        k(  279) = (   0.0833333   0.2083333   0.3333333), wk =   0.0069444
        k(  280) = (   0.0833333   0.2083333   0.3750000), wk =   0.0069444
        k(  281) = (   0.0833333   0.2083333   0.4166667), wk =   0.0069444
        k(  282) = (   0.0833333   0.2083333   0.4583333), wk =   0.0069444
        k(  283) = (   0.0833333   0.2083333  -0.5000000), wk =   0.0069444
        k(  284) = (   0.0833333   0.2083333  -0.4583333), wk =   0.0069444
        k(  285) = (   0.0833333   0.2083333  -0.4166667), wk =   0.0069444
        k(  286) = (   0.0833333   0.2083333  -0.3750000), wk =   0.0069444
        k(  287) = (   0.0833333   0.2083333  -0.3333333), wk =   0.0069444
        k(  288) = (   0.0833333   0.2083333  -0.2916667), wk =   0.0069444
        k(  289) = (   0.0833333   0.2083333  -0.2500000), wk =   0.0069444
        k(  290) = (   0.0833333   0.2083333  -0.2083333), wk =   0.0069444
        k(  291) = (   0.0833333   0.2083333  -0.1666667), wk =   0.0069444
        k(  292) = (   0.0833333   0.2083333  -0.1250000), wk =   0.0034722
        k(  293) = (   0.0833333   0.2500000   0.3333333), wk =   0.0034722
        k(  294) = (   0.0833333   0.2500000   0.3750000), wk =   0.0069444
        k(  295) = (   0.0833333   0.2500000   0.4166667), wk =   0.0069444
        k(  296) = (   0.0833333   0.2500000   0.4583333), wk =   0.0069444
        k(  297) = (   0.0833333   0.2500000  -0.5000000), wk =   0.0069444
        k(  298) = (   0.0833333   0.2500000  -0.4583333), wk =   0.0069444
        k(  299) = (   0.0833333   0.2500000  -0.4166667), wk =   0.0069444
        k(  300) = (   0.0833333   0.2500000  -0.3750000), wk =   0.0069444
        k(  301) = (   0.0833333   0.2500000  -0.3333333), wk =   0.0069444
        k(  302) = (   0.0833333   0.2500000  -0.2916667), wk =   0.0069444
        k(  303) = (   0.0833333   0.2500000  -0.2500000), wk =   0.0069444
        k(  304) = (   0.0833333   0.2500000  -0.2083333), wk =   0.0069444
        k(  305) = (   0.0833333   0.2500000  -0.1666667), wk =   0.0034722
        k(  306) = (   0.0833333   0.2916667   0.3750000), wk =   0.0034722
        k(  307) = (   0.0833333   0.2916667   0.4166667), wk =   0.0069444
        k(  308) = (   0.0833333   0.2916667   0.4583333), wk =   0.0069444
        k(  309) = (   0.0833333   0.2916667  -0.5000000), wk =   0.0069444
        k(  310) = (   0.0833333   0.2916667  -0.4583333), wk =   0.0069444
        k(  311) = (   0.0833333   0.2916667  -0.4166667), wk =   0.0069444
        k(  312) = (   0.0833333   0.2916667  -0.3750000), wk =   0.0069444
        k(  313) = (   0.0833333   0.2916667  -0.3333333), wk =   0.0069444
        k(  314) = (   0.0833333   0.2916667  -0.2916667), wk =   0.0069444
[...]

          k =-0.2500 0.5000 0.0000 (  1944 PWs)   bands (ev):

    -5.2804  -5.1877  -5.1181  -5.0726  -4.9813   1.8962  12.6111  14.3863

     occupation numbers 
     1.0000   1.0000   1.0000   1.0000   1.0000   1.0000  -0.0423   0.0000

          k =-0.2917 0.5417-0.0417 (  1943 PWs)   bands (ev):

    -5.2723  -5.1975  -5.1189  -5.0513  -4.9713   2.3264  11.7938  13.8743

     occupation numbers 
     1.0000   1.0000   1.0000   1.0000   1.0000   1.0000   0.7909   0.0000

          k =-0.3333 0.5833-0.0833 (  1944 PWs)   bands (ev):

    -5.2625  -5.2060  -5.1191  -5.0351  -4.9621   2.8021  10.8737  13.5972

     occupation numbers 
     1.0000   1.0000   1.0000   1.0000   1.0000   1.0000   1.0128   0.0000

          k = 0.6250-0.3750 0.8750 (  1944 PWs)   bands (ev):

    -5.2535  -5.2128  -5.1163  -5.0273  -4.9525   3.3018   9.9766  13.4523

     occupation numbers 
     1.0000   1.0000   1.0000   1.0000   1.0000   1.0000   1.0000  -0.0000

          k = 0.5833-0.3333 0.8333 (  1939 PWs)   bands (ev):

    -5.2469  -5.2177  -5.1101  -5.0273  -4.9430   3.7829   9.1936  13.3843

     occupation numbers 
     1.0000   1.0000   1.0000   1.0000   1.0000   1.0000   1.0000  -0.0034

          k = 0.5417-0.2917 0.7917 (  1938 PWs)   bands (ev):

    -5.2431  -5.2211  -5.1028  -5.0312  -4.9361   4.1625   8.6276  13.3597

     occupation numbers 
     1.0000   1.0000   1.0000   1.0000   1.0000   1.0000   1.0000  -0.0051

          k = 0.5000-0.2500 0.7500 (  1918 PWs)   bands (ev):

    -5.2417  -5.2222  -5.0992  -5.0334  -4.9335   4.3144   8.4128  13.3547

     occupation numbers 
     1.0000   1.0000   1.0000   1.0000   1.0000   1.0000   1.0000  -0.0064

          k =-0.2500 0.5833 0.0000 (  1938 PWs)   bands (ev):

    -5.2988  -5.2051  -5.1025  -5.0262  -4.9645   2.4736  11.9035  13.8330

     occupation numbers 
     1.0000   1.0000   1.0000   1.0000   1.0000   1.0000   0.6829   0.0000

          k =-0.2917 0.6250-0.0417 (  1939 PWs)   bands (ev):

    -5.2882  -5.2114  -5.1049  -5.0088  -4.9588   2.9276  11.1872  13.3345

     occupation numbers 
     1.0000   1.0000   1.0000   1.0000   1.0000   1.0000   1.0135  -0.0000

          k = 0.6667-0.3333 0.9167 (  1936 PWs)   bands (ev):

    -5.2762  -5.2130  -5.1064  -5.0052  -4.9498   3.4103  10.3990  13.0325

     occupation numbers 
     1.0000   1.0000   1.0000   1.0000   1.0000   1.0000   1.0000  -0.0048

          k = 0.6250-0.2917 0.8750 (  1935 PWs)   bands (ev):

    -5.2661  -5.2097  -5.1040  -5.0148  -4.9391   3.8864   9.6558  12.8363

     occupation numbers 
     1.0000   1.0000   1.0000   1.0000   1.0000   1.0000   1.0000  -0.0323

          k = 0.5833-0.2500 0.8333 (  1942 PWs)   bands (ev):

    -5.2588  -5.2048  -5.0948  -5.0325  -4.9319   4.2892   9.0696  12.6880

     occupation numbers 
     1.0000   1.0000   1.0000   1.0000   1.0000   1.0000   1.0000  -0.0490

          k = 0.5417-0.2083 0.7917 (  1939 PWs)   bands (ev):

    -5.2526  -5.2025  -5.0782  -5.0539  -4.9307   4.5107   8.7679  12.5634

     occupation numbers 
     1.0000   1.0000   1.0000   1.0000   1.0000   1.0000   1.0000  -0.0399

          k = 0.5000-0.1667 0.7500 (  1935 PWs)   bands (ev):

    -5.2462  -5.2045  -5.0770  -5.0559  -4.9361   4.4568   8.8507  12.4664

     occupation numbers 
     1.0000   1.0000   1.0000   1.0000   1.0000   1.0000   1.0000  -0.0091

          k = 0.4583-0.1250 0.7083 (  1938 PWs)   bands (ev):

    -5.2392  -5.2110  -5.0960  -5.0341  -4.9477   4.1548   9.2864  12.4197

     occupation numbers 
     1.0000   1.0000   1.0000   1.0000   1.0000   1.0000   1.0000   0.0155

          k = 0.4167-0.0833 0.6667 (  1937 PWs)   bands (ev):

    -5.2344  -5.2195  -5.1092  -5.0161  -4.9632   3.7170   9.9432  12.4591

     occupation numbers 
     1.0000   1.0000   1.0000   1.0000   1.0000   1.0000   1.0000  -0.0089

          k = 0.3750-0.0417 0.6250 (  1939 PWs)   bands (ev):

    -5.2437  -5.2168  -5.1157  -5.0117  -4.9742   3.2357  10.6762  12.6477

     occupation numbers 
     1.0000   1.0000   1.0000   1.0000   1.0000   1.0000   1.0000  -0.0184

          k = 0.3333 0.0000 0.5833 (  1939 PWs)   bands (ev):

    -5.2591  -5.2076  -5.1177  -5.0281  -4.9729   2.7631  11.3258  13.0968

     occupation numbers 
     1.0000   1.0000   1.0000   1.0000   1.0000   1.0000   1.0065  -0.0000

          k =-0.2500 0.6667 0.0000 (  1940 PWs)   bands (ev):

    -5.3162  -5.2277  -5.0782  -4.9818  -4.9528   3.1158  11.2071  13.3666

     occupation numbers 
     1.0000   1.0000   1.0000   1.0000   1.0000   1.0000   1.0123   0.0000

          k = 0.7083-0.2917 0.9583 (  1939 PWs)   bands (ev):

    -5.3030  -5.2293  -5.0832  -4.9738  -4.9475   3.5772  10.6170  12.8595

     occupation numbers 
     1.0000   1.0000   1.0000   1.0000   1.0000   1.0000   1.0000  -0.0069

          k = 0.6667-0.2500 0.9167 (  1936 PWs)   bands (ev):

    -5.2889  -5.2227  -5.0883  -4.9872  -4.9338   4.0392  10.0099  12.4635

     occupation numbers 
     1.0000   1.0000   1.0000   1.0000   1.0000   1.0000   1.0000  -0.0311

          k = 0.6250-0.2083 0.8750 (  1931 PWs)   bands (ev):

    -5.2776  -5.2076  -5.0918  -5.0084  -4.9246   4.4464   9.4887  12.1336

     occupation numbers 
     1.0000   1.0000   1.0000   1.0000   1.0000   1.0000   1.0000   0.1738

          k = 0.5833-0.1667 0.8333 (  1935 PWs)   bands (ev):

    -5.2686  -5.1897  -5.0922  -5.0317  -4.9230   4.7093   9.1758  11.8553

     occupation numbers 
     1.0000   1.0000   1.0000   1.0000   1.0000   1.0000   1.0000   0.6528

          k = 0.5417-0.1250 0.7917 (  1937 PWs)   bands (ev):

    -5.2597  -5.1786  -5.0921  -5.0466  -4.9291   4.7358   9.1765  11.6418

     occupation numbers 
     1.0000   1.0000   1.0000   1.0000   1.0000   1.0000   1.0000   0.8752

          k = 0.5000-0.0833 0.7500 (  1931 PWs)   bands (ev):

    -5.2500  -5.1812  -5.1007  -5.0383  -4.9424   4.5177   9.4887  11.5251

     occupation numbers 
     1.0000   1.0000   1.0000   1.0000   1.0000   1.0000   1.0000   0.9383

          k = 0.4583-0.0417 0.7083 (  1936 PWs)   bands (ev):

    -5.2394  -5.1973  -5.1097  -5.0165  -4.9619   4.1395   9.9731  11.5750

     occupation numbers 
     1.0000   1.0000   1.0000   1.0000   1.0000   1.0000   1.0000   0.9184

          k = 0.4167-0.0000 0.6667 (  1938 PWs)   bands (ev):

    -5.2283  -5.2204  -5.1138  -4.9942  -4.9850   3.6926  10.4077  11.9295

     occupation numbers 
     1.0000   1.0000   1.0000   1.0000   1.0000   1.0000   1.0000   0.3040

          k = 0.7500-0.2500 1.0000 (  1944 PWs)   bands (ev):

    -5.3313  -5.2499  -5.0503  -4.9474  -4.9430   3.7992  10.4985  12.9950

     occupation numbers 
     1.0000   1.0000   1.0000   1.0000   1.0000   1.0000   1.0000  -0.0016

          k = 0.7083-0.2083 0.9583 (  1942 PWs)   bands (ev):

    -5.3153  -5.2464  -5.0575  -4.9631  -4.9252   4.2383  10.0644  12.4433

     occupation numbers 
     1.0000   1.0000   1.0000   1.0000   1.0000   1.0000   1.0000  -0.0361

          k = 0.6667-0.1667 0.9167 (  1931 PWs)   bands (ev):

    -5.2993  -5.2322  -5.0666  -4.9853  -4.9143   4.6322   9.7034  11.8837

     occupation numbers 
     1.0000   1.0000   1.0000   1.0000   1.0000   1.0000   1.0000   0.5655

          k = 0.6250-0.1250 0.8750 (  1930 PWs)   bands (ev):

    -5.2863  -5.2070  -5.0788  -5.0094  -4.9117   4.9064   9.5021  11.3804

     occupation numbers 
     1.0000   1.0000   1.0000   1.0000   1.0000   1.0000   1.0000   1.0328

          k = 0.5833-0.0833 0.8333 (  1934 PWs)   bands (ev):

    -5.2750  -5.1763  -5.0976  -5.0281  -4.9171   4.9826   9.5421  10.9767

     occupation numbers 
     1.0000   1.0000   1.0000   1.0000   1.0000   1.0000   1.0000   1.0159

          k = 0.5417-0.0417 0.7917 (  1930 PWs)   bands (ev):

    -5.2635  -5.1511  -5.1212  -5.0347  -4.9294   4.8397   9.8026  10.7390

     occupation numbers 
     1.0000   1.0000   1.0000   1.0000   1.0000   1.0000   1.0000   1.0081

          k = 0.5000 0.0000 0.7500 (  1930 PWs)   bands (ev):

    -5.2514  -5.1659  -5.1181  -5.0286  -4.9462   4.5331   9.9979  10.9107

     occupation numbers 
     1.0000   1.0000   1.0000   1.0000   1.0000   1.0000   1.0000   1.0217

          k = 0.7500-0.1667 1.0000 (  1945 PWs)   bands (ev):

    -5.3430  -5.2680  -5.0220  -4.9491  -4.9126   4.4749   9.7933  12.7248

     occupation numbers 
     1.0000   1.0000   1.0000   1.0000   1.0000   1.0000   1.0000  -0.0342

          k = 0.7083-0.1250 0.9583 (  1933 PWs)   bands (ev):

    -5.3242  -5.2595  -5.0312  -4.9690  -4.9025   4.8360   9.5506  12.1072

     occupation numbers 
     1.0000   1.0000   1.0000   1.0000   1.0000   1.0000   1.0000   0.1917

          k = 0.6667-0.0833 0.9167 (  1932 PWs)   bands (ev):

    -5.3060  -5.2389  -5.0453  -4.9932  -4.8996   5.0882   9.4870  11.4169

     occupation numbers 
     1.0000   1.0000   1.0000   1.0000   1.0000   1.0000   1.0000   1.0275

          k = 0.6250-0.0417 0.8750 (  1928 PWs)   bands (ev):

    -5.2909  -5.2071  -5.0688  -5.0135  -4.9041   5.1722   9.6620  10.7860

     occupation numbers 
     1.0000   1.0000   1.0000   1.0000   1.0000   1.0000   1.0000   1.0001

          k = 0.5833 0.0000 0.8333 (  1923 PWs)   bands (ev):

    -5.2771  -5.1704  -5.1011  -5.0264  -4.9150   5.0761  10.0618  10.2745

     occupation numbers 
     1.0000   1.0000   1.0000   1.0000   1.0000   1.0000   1.0000   1.0000

          k = 0.7500-0.0833 1.0000 (  1932 PWs)   bands (ev):

    -5.3503  -5.2797  -4.9958  -4.9579  -4.8932   5.0343   9.2014  12.5606

     occupation numbers 
     1.0000   1.0000   1.0000   1.0000   1.0000   1.0000   1.0000  -0.0807

          k = 0.7083-0.0417 0.9583 (  1932 PWs)   bands (ev):

    -5.3288  -5.2664  -5.0081  -4.9820  -4.8902   5.2246   9.2007  11.9154

     occupation numbers 
     1.0000   1.0000   1.0000   1.0000   1.0000   1.0000   1.0000   0.6374

          k = 0.6667-0.0000 0.9167 (  1933 PWs)   bands (ev):

    -5.3083  -5.2413  -5.0340  -5.0002  -4.8942   5.2666   9.4026  11.2372

     occupation numbers 
     1.0000   1.0000   1.0000   1.0000   1.0000   1.0000   1.0000   1.0255

          k =-0.2500-1.0000 0.0000 (  1940 PWs)   bands (ev):

    -5.3528  -5.2838  -4.9742  -4.9737  -4.8867   5.2704   8.9509  12.5056

     occupation numbers 
     1.0000   1.0000   1.0000   1.0000   1.0000   1.0000   1.0000  -0.0975

          k = 0.6667-0.3333 1.0000 (  1930 PWs)   bands (ev):

    -5.2721  -5.2187  -5.1073  -4.9835  -4.9684   3.3780  10.7901  12.6319

     occupation numbers 
     1.0000   1.0000   1.0000   1.0000   1.0000   1.0000   1.0000  -0.0140

          k = 0.6250-0.2917 0.9583 (  1939 PWs)   bands (ev):

    -5.2546  -5.2218  -5.1090  -4.9892  -4.9574   3.8424  10.2710  12.1984

     occupation numbers 
     1.0000   1.0000   1.0000   1.0000   1.0000   1.0000   1.0000   0.0502

          k = 0.5833-0.2500 0.9167 (  1933 PWs)   bands (ev):

    -5.2447  -5.2149  -5.1072  -5.0113  -4.9396   4.2781   9.7142  11.9877

     occupation numbers 
     1.0000   1.0000   1.0000   1.0000   1.0000   1.0000   1.0000   0.3683

          k = 0.5417-0.2083 0.8750 (  1929 PWs)   bands (ev):

    -5.2433  -5.2031  -5.0998  -5.0344  -4.9282   4.6104   9.2784  11.9028

     occupation numbers 
     1.0000   1.0000   1.0000   1.0000   1.0000   1.0000   1.0000   0.6019

          k = 0.5000-0.1667 0.8333 (  1930 PWs)   bands (ev):

    -5.2435  -5.1981  -5.0933  -5.0467  -4.9243   4.7394   9.1106  11.8813

     occupation numbers 
     1.0000   1.0000   1.0000   1.0000   1.0000   1.0000   1.0000   0.6504

          k = 0.6667-0.2500 1.0000 (  1938 PWs)   bands (ev):

    -5.2839  -5.2328  -5.0892  -4.9699  -4.9441   4.0183  10.3020  12.2618

     occupation numbers 
     1.0000   1.0000   1.0000   1.0000   1.0000   1.0000   1.0000   0.0041

          k = 0.6250-0.2083 0.9583 (  1928 PWs)   bands (ev):

    -5.2643  -5.2283  -5.0964  -4.9904  -4.9272   4.4387   9.9561  11.8170

     occupation numbers 
     1.0000   1.0000   1.0000   1.0000   1.0000   1.0000   1.0000   0.6764

          k = 0.5833-0.1667 0.9167 (  1927 PWs)   bands (ev):

    -5.2535  -5.2103  -5.1051  -5.0134  -4.9161   4.7769   9.6507  11.5066

     occupation numbers 
     1.0000   1.0000   1.0000   1.0000   1.0000   1.0000   1.0000   0.9988

          k = 0.5417-0.1250 0.8750 (  1931 PWs)   bands (ev):

    -5.2482  -5.1888  -5.1155  -5.0302  -4.9125   4.9503   9.5060  11.2937

     occupation numbers 
     1.0000   1.0000   1.0000   1.0000   1.0000   1.0000   1.0000   1.0190

          k = 0.5000-0.0833 0.8333 (  1935 PWs)   bands (ev):

    -5.2432  -5.1826  -5.1222  -5.0324  -4.9170   4.9001   9.5968  11.1785

     occupation numbers 
     1.0000   1.0000   1.0000   1.0000   1.0000   1.0000   1.0000   1.0219

          k = 0.4583-0.0417 0.7917 (  1933 PWs)   bands (ev):

    -5.2371  -5.2002  -5.1191  -5.0194  -4.9286   4.6477   9.8602  11.2255

     occupation numbers 
     1.0000   1.0000   1.0000   1.0000   1.0000   1.0000   1.0000   1.0388

          k = 0.4167 0.0000 0.7500 (  1936 PWs)   bands (ev):

    -5.2300  -5.2276  -5.1136  -4.9996  -4.9453   4.2708  10.1138  11.5577

     occupation numbers 
     1.0000   1.0000   1.0000   1.0000   1.0000   1.0000   1.0000   0.9379

          k = 0.6667-0.1667 1.0000 (  1946 PWs)   bands (ev):

    -5.2932  -5.2459  -5.0669  -4.9772  -4.9132   4.6296   9.8558  11.9927

     occupation numbers 
     1.0000   1.0000   1.0000   1.0000   1.0000   1.0000   1.0000   0.4014

          k = 0.6250-0.1250 0.9583 (  1930 PWs)   bands (ev):

    -5.2716  -5.2346  -5.0808  -4.9988  -4.9031   4.9490   9.7323  11.4986

     occupation numbers 
     1.0000   1.0000   1.0000   1.0000   1.0000   1.0000   1.0000   1.0231

          k = 0.5833-0.0833 0.9167 (  1929 PWs)   bands (ev):

    -5.2594  -5.2074  -5.1022  -5.0175  -4.8997   5.1310   9.7603  11.0061

     occupation numbers 
     1.0000   1.0000   1.0000   1.0000   1.0000   1.0000   1.0000   1.0038

          k = 0.5417-0.0417 0.8750 (  1931 PWs)   bands (ev):

    -5.2512  -5.1738  -5.1318  -5.0274  -4.9039   5.1289   9.9682  10.6073

     occupation numbers 
     1.0000   1.0000   1.0000   1.0000   1.0000   1.0000   1.0000   1.0000

          k = 0.5000 0.0000 0.8333 (  1932 PWs)   bands (ev):

    -5.2434  -5.1683  -5.1407  -5.0274  -4.9145   4.9505  10.0551  10.6376

     occupation numbers 
     1.0000   1.0000   1.0000   1.0000   1.0000   1.0000   1.0000   1.0000

          k = 0.6667-0.0833 1.0000 (  1935 PWs)   bands (ev):

    -5.2989  -5.2548  -5.0450  -4.9889  -4.8935   5.1088   9.4951  11.8293

     occupation numbers 
     1.0000   1.0000   1.0000   1.0000   1.0000   1.0000   1.0000   0.8443

          k = 0.6250-0.0417 0.9583 (  1933 PWs)   bands (ev):

    -5.2755  -5.2383  -5.0684  -5.0072  -4.8902   5.2586   9.6102  11.2900

     occupation numbers 
     1.0000   1.0000   1.0000   1.0000   1.0000   1.0000   1.0000   1.0169

          k = 0.5833 0.0000 0.9167 (  1931 PWs)   bands (ev):

    -5.2614  -5.2064  -5.1007  -5.0195  -4.8940   5.2604   9.8938  10.7204

     occupation numbers 
     1.0000   1.0000   1.0000   1.0000   1.0000   1.0000   1.0000   1.0000

          k =-0.3333-1.0000 0.0000 (  1940 PWs)   bands (ev):

    -5.3010  -5.2580  -5.0332  -4.9971  -4.8867   5.2998   9.3454  11.7745

     occupation numbers 
     1.0000   1.0000   1.0000   1.0000   1.0000   1.0000   1.0000   0.9201

          k = 0.5833-0.1667 1.0000 (  1924 PWs)   bands (ev):

    -5.2337  -5.2323  -5.1093  -5.0069  -4.9138   4.7954   9.9313  11.2874

     occupation numbers 
     1.0000   1.0000   1.0000   1.0000   1.0000   1.0000   1.0000   1.0425

          k = 0.5417-0.1250 0.9583 (  1934 PWs)   bands (ev):

    -5.2350  -5.2005  -5.1287  -5.0220  -4.9036   5.0519   9.9151  10.9397

     occupation numbers 
     1.0000   1.0000   1.0000   1.0000   1.0000   1.0000   1.0000   1.0007

          k = 0.5000-0.0833 0.9167 (  1930 PWs)   bands (ev):

    -5.2358  -5.1787  -5.1454  -5.0277  -4.8998   5.1470   9.9058  10.8208

     occupation numbers 
     1.0000   1.0000   1.0000   1.0000   1.0000   1.0000   1.0000   1.0000

          k = 0.5833-0.0833 1.0000 (  1934 PWs)   bands (ev):

    -5.2377  -5.2347  -5.1036  -5.0140  -4.8936   5.1785   9.8523  11.1232

     occupation numbers 
     1.0000   1.0000   1.0000   1.0000   1.0000   1.0000   1.0000   1.0054

          k = 0.5417-0.0417 0.9583 (  1931 PWs)   bands (ev):

    -5.2342  -5.1992  -5.1348  -5.0236  -4.8902   5.2786  10.0860  10.7050

     occupation numbers 
     1.0000   1.0000   1.0000   1.0000   1.0000   1.0000   1.0000   1.0000

          k = 0.5000 0.0000 0.9167 (  1931 PWs)   bands (ev):

    -5.2326  -5.1702  -5.1613  -5.0261  -4.8938   5.2313  10.2618  10.4718

     occupation numbers 
     1.0000   1.0000   1.0000   1.0000   1.0000   1.0000   1.0000   1.0000

          k =-0.4167-1.0000 0.0000 (  1922 PWs)   bands (ev):

    -5.2391  -5.2356  -5.1007  -5.0171  -4.8866   5.3220   9.8374  11.0681

     occupation numbers 
     1.0000   1.0000   1.0000   1.0000   1.0000   1.0000   1.0000   1.0000

          k =-0.5000-1.0000 0.0000 (  1912 PWs)   bands (ev):

    -5.2263  -5.1708  -5.1708  -5.0255  -4.8865   5.3303  10.4162  10.4162

     occupation numbers 
     1.0000   1.0000   1.0000   1.0000   1.0000   1.0000   1.0000   1.0000

     the Fermi energy is    11.9320 ev
     (compare with:    11.9348 eV, computed in scf)

     Writing output data file /home/elena/AEP_DFT/DFT/tmp/bands/Pb.save/

     init_run     :      0.67s CPU      0.70s WALL (       1 calls)
     electrons    :     77.07s CPU     77.43s WALL (       1 calls)

     Called by init_run:
     wfcinit      :      0.00s CPU      0.00s WALL (       1 calls)
     wfcinit:atom :      0.14s CPU      0.15s WALL (     413 calls)
     wfcinit:wfcr :      3.81s CPU      3.86s WALL (     413 calls)
     potinit      :      0.06s CPU      0.06s WALL (       1 calls)
     hinit0       :      0.44s CPU      0.44s WALL (       1 calls)

     Called by electrons:
     c_bands      :     76.49s CPU     76.85s WALL (       1 calls)
     v_of_rho     :      0.05s CPU      0.06s WALL (       1 calls)
     v_h          :      0.00s CPU      0.00s WALL (       1 calls)
     v_xc         :      0.05s CPU      0.05s WALL (       1 calls)
     newd         :      0.08s CPU      0.11s WALL (       1 calls)

     Called by c_bands:
     init_us_2    :      0.18s CPU      0.19s WALL (     413 calls)
     cegterg      :     71.63s CPU     71.88s WALL (     801 calls)

     Called by sum_band:

     Called by *egterg:
     cdiaghg      :      0.85s CPU      0.85s WALL (   11901 calls)
     cegterg:over :      3.90s CPU      3.92s WALL (   11488 calls)
     cegterg:upda :      2.23s CPU      2.24s WALL (   11488 calls)
     cegterg:last :      5.54s CPU      5.56s WALL (    7171 calls)
     h_psi        :     59.05s CPU     59.29s WALL (   12702 calls)
     s_psi        :      2.39s CPU      2.40s WALL (   12702 calls)
     g_psi        :      0.37s CPU      0.37s WALL (   11488 calls)

     Called by h_psi:
     h_psi:calbec :      2.93s CPU      2.94s WALL (   12702 calls)
     vloc_psi     :     53.49s CPU     53.71s WALL (   12702 calls)
     add_vuspsi   :      2.42s CPU      2.43s WALL (   12702 calls)

     General routines
     calbec       :      2.90s CPU      2.91s WALL (   12702 calls)
     fft          :      0.02s CPU      0.02s WALL (      13 calls)
     ffts         :      0.00s CPU      0.00s WALL (       1 calls)
     fftw         :     48.70s CPU     48.91s WALL (  128558 calls)
     interpolate  :      0.01s CPU      0.01s WALL (       1 calls)
     davcio       :      0.04s CPU      0.05s WALL (     826 calls)


     PWSCF        :   1m22.13s CPU   1m22.60s WALL


   This run was terminated on:  22:43:42   1Jul2021            

=------------------------------------------------------------------------------=
   JOB DONE.
=------------------------------------------------------------------------------=
