
     Program PWSCF v.6.7MaX starts on  1Jul2021 at 22:40:22 

     This program is part of the open-source Quantum ESPRESSO suite
     for quantum simulation of materials; please cite
         "P. Giannozzi et al., J. Phys.:Condens. Matter 21 395502 (2009);
         "P. Giannozzi et al., J. Phys.:Condens. Matter 29 465901 (2017);
          URL http://www.quantum-espresso.org", 
     in publications or presentations arising from this work. More details at
     http://www.quantum-espresso.org/quote

     Serial version
     Waiting for input...
     Reading input from standard input

     Current dimensions of program PWSCF are:
     Max number of different atomic species (ntypx) = 10
     Max number of k-points (npk) =  40000
     Max angular momentum in pseudopotentials (lmaxx) =  3

     Atomic positions and unit cell read from directory:
     /home/elena/AEP_DFT/DFT/tmp/bands/Pb.save/

     file Pb.pbe-dn-rrkjus_psl.1.0.0.UPF: wavefunction(s)  6S 5D renormalized

     G-vector sticks info
     --------------------
     sticks:   dense  smooth     PW     G-vecs:    dense   smooth      PW
     Sum        1639     823    253                43895    15593    2685



     bravais-lattice index     =            2
     lattice parameter (alat)  =       9.2226  a.u.
     unit-cell volume          =     196.1075 (a.u.)^3
     number of atoms/cell      =            1
     number of atomic types    =            1
     number of electrons       =        14.00
     number of Kohn-Sham states=            8
     kinetic-energy cutoff     =      70.0000  Ry
     charge density cutoff     =     560.0000  Ry
     Exchange-correlation= PBE
                           (   1   4   3   4   0   0   0)

     celldm(1)=   9.222558  celldm(2)=   0.000000  celldm(3)=   0.000000
     celldm(4)=   0.000000  celldm(5)=   0.000000  celldm(6)=   0.000000

     crystal axes: (cart. coord. in units of alat)
               a(1) = (  -0.500000   0.000000   0.500000 )  
               a(2) = (   0.000000   0.500000   0.500000 )  
               a(3) = (  -0.500000   0.500000   0.000000 )  

     reciprocal axes: (cart. coord. in units 2 pi/alat)
               b(1) = ( -1.000000 -1.000000  1.000000 )  
               b(2) = (  1.000000  1.000000  1.000000 )  
               b(3) = ( -1.000000  1.000000 -1.000000 )  


     PseudoPot. # 1 for Pb read from file:
     /home/elena/qe-6.7/pseudo/Pb.pbe-dn-rrkjus_psl.1.0.0.UPF
     MD5 check sum: 1cf8f5e18580e6a90a35f98a53d336de
     Pseudo is Ultrasoft + core correction, Zval = 14.0
     Generated using &quot;atomic&quot; code by A. Dal Corso  v.6.3
     Using radial grid of 1281 points,  6 beta functions with: 
                l(1) =   0
                l(2) =   0
                l(3) =   1
                l(4) =   1
                l(5) =   2
                l(6) =   2
     Q(r) pseudized with 0 coefficients 


     atomic species   valence    mass     pseudopotential
        Pb            14.00   207.20000     Pb( 1.00)

     48 Sym. Ops., with inversion, found


                                    s                        frac. trans.

      isym =  1     identity                                     

 cryst.   s( 1) = (     1          0          0      )
                  (     0          1          0      )
                  (     0          0          1      )

 cart.    s( 1) = (  1.0000000  0.0000000  0.0000000 )
                  (  0.0000000  1.0000000  0.0000000 )
                  (  0.0000000  0.0000000  1.0000000 )


      isym =  2     180 deg rotation - cart. axis [0,0,1]        

 cryst.   s( 2) = (     0          1         -1      )
                  (     1          0         -1      )
                  (     0          0         -1      )

 cart.    s( 2) = ( -1.0000000  0.0000000  0.0000000 )
                  (  0.0000000 -1.0000000  0.0000000 )
                  (  0.0000000  0.0000000  1.0000000 )


      isym =  3     180 deg rotation - cart. axis [0,1,0]        

 cryst.   s( 3) = (    -1          0          0      )
                  (    -1          0          1      )
                  (    -1          1          0      )

 cart.    s( 3) = ( -1.0000000  0.0000000  0.0000000 )
                  (  0.0000000  1.0000000  0.0000000 )
                  (  0.0000000  0.0000000 -1.0000000 )


      isym =  4     180 deg rotation - cart. axis [1,0,0]        

 cryst.   s( 4) = (     0         -1          1      )
                  (     0         -1          0      )
                  (     1         -1          0      )

 cart.    s( 4) = (  1.0000000  0.0000000  0.0000000 )
                  (  0.0000000 -1.0000000  0.0000000 )
                  (  0.0000000  0.0000000 -1.0000000 )


      isym =  5     180 deg rotation - cart. axis [1,1,0]        

 cryst.   s( 5) = (     0         -1          0      )
                  (    -1          0          0      )
                  (     0          0         -1      )

 cart.    s( 5) = (  0.0000000  1.0000000  0.0000000 )
                  (  1.0000000  0.0000000  0.0000000 )
                  (  0.0000000  0.0000000 -1.0000000 )


      isym =  6     180 deg rotation - cart. axis [1,-1,0]       

 cryst.   s( 6) = (    -1          0          1      )
                  (     0         -1          1      )
                  (     0          0          1      )

 cart.    s( 6) = (  0.0000000 -1.0000000  0.0000000 )
                  ( -1.0000000  0.0000000  0.0000000 )
                  (  0.0000000  0.0000000 -1.0000000 )


      isym =  7      90 deg rotation - cart. axis [0,0,-1]       

 cryst.   s( 7) = (     0          1          0      )
                  (     0          1         -1      )
                  (    -1          1          0      )

 cart.    s( 7) = (  0.0000000  1.0000000  0.0000000 )
                  ( -1.0000000  0.0000000  0.0000000 )
                  (  0.0000000  0.0000000  1.0000000 )


      isym =  8      90 deg rotation - cart. axis [0,0,1]        

 cryst.   s( 8) = (     1          0         -1      )
                  (     1          0          0      )
                  (     1         -1          0      )

 cart.    s( 8) = (  0.0000000 -1.0000000  0.0000000 )
                  (  1.0000000  0.0000000  0.0000000 )
                  (  0.0000000  0.0000000  1.0000000 )


      isym =  9     180 deg rotation - cart. axis [1,0,1]        

 cryst.   s( 9) = (    -1          0          0      )
                  (     0          0         -1      )
                  (     0         -1          0      )

 cart.    s( 9) = (  0.0000000  0.0000000  1.0000000 )
                  (  0.0000000 -1.0000000  0.0000000 )
                  (  1.0000000  0.0000000  0.0000000 )


      isym = 10     180 deg rotation - cart. axis [-1,0,1]       

 cryst.   s(10) = (     1          0          0      )
                  (     1         -1          0      )
                  (     1          0         -1      )

 cart.    s(10) = (  0.0000000  0.0000000 -1.0000000 )
                  (  0.0000000 -1.0000000  0.0000000 )
                  ( -1.0000000  0.0000000  0.0000000 )


      isym = 11      90 deg rotation - cart. axis [0,1,0]        

 cryst.   s(11) = (     0          1         -1      )
                  (    -1          1          0      )
                  (     0          1          0      )

 cart.    s(11) = (  0.0000000  0.0000000  1.0000000 )
                  (  0.0000000  1.0000000  0.0000000 )
                  ( -1.0000000  0.0000000  0.0000000 )


      isym = 12      90 deg rotation - cart. axis [0,-1,0]       

 cryst.   s(12) = (     0         -1          1      )
                  (     0          0          1      )
                  (    -1          0          1      )

 cart.    s(12) = (  0.0000000  0.0000000 -1.0000000 )
                  (  0.0000000  1.0000000  0.0000000 )
                  (  1.0000000  0.0000000  0.0000000 )


      isym = 13     180 deg rotation - cart. axis [0,1,1]        

 cryst.   s(13) = (    -1          1          0      )
                  (     0          1          0      )
                  (     0          1         -1      )

 cart.    s(13) = ( -1.0000000  0.0000000  0.0000000 )
                  (  0.0000000  0.0000000  1.0000000 )
                  (  0.0000000  1.0000000  0.0000000 )


      isym = 14     180 deg rotation - cart. axis [0,1,-1]       

 cryst.   s(14) = (     0          0         -1      )
                  (     0         -1          0      )
                  (    -1          0          0      )

 cart.    s(14) = ( -1.0000000  0.0000000  0.0000000 )
                  (  0.0000000  0.0000000 -1.0000000 )
                  (  0.0000000 -1.0000000  0.0000000 )


      isym = 15      90 deg rotation - cart. axis [-1,0,0]       

 cryst.   s(15) = (     0          0          1      )
                  (    -1          0          1      )
                  (     0         -1          1      )

 cart.    s(15) = (  1.0000000  0.0000000  0.0000000 )
                  (  0.0000000  0.0000000  1.0000000 )
                  (  0.0000000 -1.0000000  0.0000000 )


      isym = 16      90 deg rotation - cart. axis [1,0,0]        

 cryst.   s(16) = (     1         -1          0      )
                  (     1          0         -1      )
                  (     1          0          0      )

 cart.    s(16) = (  1.0000000  0.0000000  0.0000000 )
                  (  0.0000000  0.0000000 -1.0000000 )
                  (  0.0000000  1.0000000  0.0000000 )


      isym = 17     120 deg rotation - cart. axis [-1,-1,-1]     

 cryst.   s(17) = (    -1          0          1      )
                  (    -1          1          0      )
                  (    -1          0          0      )

 cart.    s(17) = (  0.0000000  1.0000000  0.0000000 )
                  (  0.0000000  0.0000000  1.0000000 )
                  (  1.0000000  0.0000000  0.0000000 )


      isym = 18     120 deg rotation - cart. axis [-1,1,1]       

 cryst.   s(18) = (     0          1          0      )
                  (     0          0          1      )
                  (     1          0          0      )

 cart.    s(18) = (  0.0000000 -1.0000000  0.0000000 )
                  (  0.0000000  0.0000000  1.0000000 )
                  ( -1.0000000  0.0000000  0.0000000 )


      isym = 19     120 deg rotation - cart. axis [1,1,-1]       

 cryst.   s(19) = (     1          0         -1      )
                  (     0          0         -1      )
                  (     0          1         -1      )

 cart.    s(19) = (  0.0000000  1.0000000  0.0000000 )
                  (  0.0000000  0.0000000 -1.0000000 )
                  ( -1.0000000  0.0000000  0.0000000 )


      isym = 20     120 deg rotation - cart. axis [1,-1,1]       

 cryst.   s(20) = (     0         -1          0      )
                  (     1         -1          0      )
                  (     0         -1          1      )

 cart.    s(20) = (  0.0000000 -1.0000000  0.0000000 )
                  (  0.0000000  0.0000000 -1.0000000 )
                  (  1.0000000  0.0000000  0.0000000 )


      isym = 21     120 deg rotation - cart. axis [1,1,1]        

 cryst.   s(21) = (     0          0         -1      )
                  (     0          1         -1      )
                  (     1          0         -1      )

 cart.    s(21) = (  0.0000000  0.0000000  1.0000000 )
                  (  1.0000000  0.0000000  0.0000000 )
                  (  0.0000000  1.0000000  0.0000000 )


      isym = 22     120 deg rotation - cart. axis [-1,1,-1]      

 cryst.   s(22) = (    -1          1          0      )
                  (    -1          0          0      )
                  (    -1          0          1      )

 cart.    s(22) = (  0.0000000  0.0000000  1.0000000 )
                  ( -1.0000000  0.0000000  0.0000000 )
                  (  0.0000000 -1.0000000  0.0000000 )


      isym = 23     120 deg rotation - cart. axis [1,-1,-1]      

 cryst.   s(23) = (     0          0          1      )
                  (     1          0          0      )
                  (     0          1          0      )

 cart.    s(23) = (  0.0000000  0.0000000 -1.0000000 )
                  ( -1.0000000  0.0000000  0.0000000 )
                  (  0.0000000  1.0000000  0.0000000 )


      isym = 24     120 deg rotation - cart. axis [-1,-1,1]      

 cryst.   s(24) = (     1         -1          0      )
                  (     0         -1          1      )
                  (     0         -1          0      )

 cart.    s(24) = (  0.0000000  0.0000000 -1.0000000 )
                  (  1.0000000  0.0000000  0.0000000 )
                  (  0.0000000 -1.0000000  0.0000000 )


      isym = 25     inversion                                    

 cryst.   s(25) = (    -1          0          0      )
                  (     0         -1          0      )
                  (     0          0         -1      )

 cart.    s(25) = ( -1.0000000  0.0000000  0.0000000 )
                  (  0.0000000 -1.0000000  0.0000000 )
                  (  0.0000000  0.0000000 -1.0000000 )


      isym = 26     inv. 180 deg rotation - cart. axis [0,0,1]   

 cryst.   s(26) = (     0         -1          1      )
                  (    -1          0          1      )
                  (     0          0          1      )

 cart.    s(26) = (  1.0000000  0.0000000  0.0000000 )
                  (  0.0000000  1.0000000  0.0000000 )
                  (  0.0000000  0.0000000 -1.0000000 )


      isym = 27     inv. 180 deg rotation - cart. axis [0,1,0]   

 cryst.   s(27) = (     1          0          0      )
                  (     1          0         -1      )
                  (     1         -1          0      )

 cart.    s(27) = (  1.0000000  0.0000000  0.0000000 )
                  (  0.0000000 -1.0000000  0.0000000 )
                  (  0.0000000  0.0000000  1.0000000 )


      isym = 28     inv. 180 deg rotation - cart. axis [1,0,0]   

 cryst.   s(28) = (     0          1         -1      )
                  (     0          1          0      )
                  (    -1          1          0      )

 cart.    s(28) = ( -1.0000000  0.0000000  0.0000000 )
                  (  0.0000000  1.0000000  0.0000000 )
                  (  0.0000000  0.0000000  1.0000000 )


      isym = 29     inv. 180 deg rotation - cart. axis [1,1,0]   

 cryst.   s(29) = (     0          1          0      )
                  (     1          0          0      )
                  (     0          0          1      )

 cart.    s(29) = (  0.0000000 -1.0000000  0.0000000 )
                  ( -1.0000000  0.0000000  0.0000000 )
                  (  0.0000000  0.0000000  1.0000000 )


      isym = 30     inv. 180 deg rotation - cart. axis [1,-1,0]  

 cryst.   s(30) = (     1          0         -1      )
                  (     0          1         -1      )
                  (     0          0         -1      )

 cart.    s(30) = (  0.0000000  1.0000000  0.0000000 )
                  (  1.0000000  0.0000000  0.0000000 )
                  (  0.0000000  0.0000000  1.0000000 )


      isym = 31     inv.  90 deg rotation - cart. axis [0,0,-1]  

 cryst.   s(31) = (     0         -1          0      )
                  (     0         -1          1      )
                  (     1         -1          0      )

 cart.    s(31) = (  0.0000000 -1.0000000  0.0000000 )
                  (  1.0000000  0.0000000  0.0000000 )
                  (  0.0000000  0.0000000 -1.0000000 )


      isym = 32     inv.  90 deg rotation - cart. axis [0,0,1]   

 cryst.   s(32) = (    -1          0          1      )
                  (    -1          0          0      )
                  (    -1          1          0      )

 cart.    s(32) = (  0.0000000  1.0000000  0.0000000 )
                  ( -1.0000000  0.0000000  0.0000000 )
                  (  0.0000000  0.0000000 -1.0000000 )


      isym = 33     inv. 180 deg rotation - cart. axis [1,0,1]   

 cryst.   s(33) = (     1          0          0      )
                  (     0          0          1      )
                  (     0          1          0      )

 cart.    s(33) = (  0.0000000  0.0000000 -1.0000000 )
                  (  0.0000000  1.0000000  0.0000000 )
                  ( -1.0000000  0.0000000  0.0000000 )


      isym = 34     inv. 180 deg rotation - cart. axis [-1,0,1]  

 cryst.   s(34) = (    -1          0          0      )
                  (    -1          1          0      )
                  (    -1          0          1      )

 cart.    s(34) = (  0.0000000  0.0000000  1.0000000 )
                  (  0.0000000  1.0000000  0.0000000 )
                  (  1.0000000  0.0000000  0.0000000 )


      isym = 35     inv.  90 deg rotation - cart. axis [0,1,0]   

 cryst.   s(35) = (     0         -1          1      )
                  (     1         -1          0      )
                  (     0         -1          0      )

 cart.    s(35) = (  0.0000000  0.0000000 -1.0000000 )
                  (  0.0000000 -1.0000000  0.0000000 )
                  (  1.0000000  0.0000000  0.0000000 )


      isym = 36     inv.  90 deg rotation - cart. axis [0,-1,0]  

 cryst.   s(36) = (     0          1         -1      )
                  (     0          0         -1      )
                  (     1          0         -1      )

 cart.    s(36) = (  0.0000000  0.0000000  1.0000000 )
                  (  0.0000000 -1.0000000  0.0000000 )
                  ( -1.0000000  0.0000000  0.0000000 )


      isym = 37     inv. 180 deg rotation - cart. axis [0,1,1]   

 cryst.   s(37) = (     1         -1          0      )
                  (     0         -1          0      )
                  (     0         -1          1      )

 cart.    s(37) = (  1.0000000  0.0000000  0.0000000 )
                  (  0.0000000  0.0000000 -1.0000000 )
                  (  0.0000000 -1.0000000  0.0000000 )


      isym = 38     inv. 180 deg rotation - cart. axis [0,1,-1]  

 cryst.   s(38) = (     0          0          1      )
                  (     0          1          0      )
                  (     1          0          0      )

 cart.    s(38) = (  1.0000000  0.0000000  0.0000000 )
                  (  0.0000000  0.0000000  1.0000000 )
                  (  0.0000000  1.0000000  0.0000000 )


      isym = 39     inv.  90 deg rotation - cart. axis [-1,0,0]  

 cryst.   s(39) = (     0          0         -1      )
                  (     1          0         -1      )
                  (     0          1         -1      )

 cart.    s(39) = ( -1.0000000  0.0000000  0.0000000 )
                  (  0.0000000  0.0000000 -1.0000000 )
                  (  0.0000000  1.0000000  0.0000000 )


      isym = 40     inv.  90 deg rotation - cart. axis [1,0,0]   

 cryst.   s(40) = (    -1          1          0      )
                  (    -1          0          1      )
                  (    -1          0          0      )

 cart.    s(40) = ( -1.0000000  0.0000000  0.0000000 )
                  (  0.0000000  0.0000000  1.0000000 )
                  (  0.0000000 -1.0000000  0.0000000 )


      isym = 41     inv. 120 deg rotation - cart. axis [-1,-1,-1]

 cryst.   s(41) = (     1          0         -1      )
                  (     1         -1          0      )
                  (     1          0          0      )

 cart.    s(41) = (  0.0000000 -1.0000000  0.0000000 )
                  (  0.0000000  0.0000000 -1.0000000 )
                  ( -1.0000000  0.0000000  0.0000000 )


      isym = 42     inv. 120 deg rotation - cart. axis [-1,1,1]  

 cryst.   s(42) = (     0         -1          0      )
                  (     0          0         -1      )
                  (    -1          0          0      )

 cart.    s(42) = (  0.0000000  1.0000000  0.0000000 )
                  (  0.0000000  0.0000000 -1.0000000 )
                  (  1.0000000  0.0000000  0.0000000 )


      isym = 43     inv. 120 deg rotation - cart. axis [1,1,-1]  

 cryst.   s(43) = (    -1          0          1      )
                  (     0          0          1      )
                  (     0         -1          1      )

 cart.    s(43) = (  0.0000000 -1.0000000  0.0000000 )
                  (  0.0000000  0.0000000  1.0000000 )
                  (  1.0000000  0.0000000  0.0000000 )


      isym = 44     inv. 120 deg rotation - cart. axis [1,-1,1]  

 cryst.   s(44) = (     0          1          0      )
                  (    -1          1          0      )
                  (     0          1         -1      )

 cart.    s(44) = (  0.0000000  1.0000000  0.0000000 )
                  (  0.0000000  0.0000000  1.0000000 )
                  ( -1.0000000  0.0000000  0.0000000 )


      isym = 45     inv. 120 deg rotation - cart. axis [1,1,1]   

 cryst.   s(45) = (     0          0          1      )
                  (     0         -1          1      )
                  (    -1          0          1      )

 cart.    s(45) = (  0.0000000  0.0000000 -1.0000000 )
                  ( -1.0000000  0.0000000  0.0000000 )
                  (  0.0000000 -1.0000000  0.0000000 )


      isym = 46     inv. 120 deg rotation - cart. axis [-1,1,-1] 

 cryst.   s(46) = (     1         -1          0      )
                  (     1          0          0      )
                  (     1          0         -1      )

 cart.    s(46) = (  0.0000000  0.0000000 -1.0000000 )
                  (  1.0000000  0.0000000  0.0000000 )
                  (  0.0000000  1.0000000  0.0000000 )


      isym = 47     inv. 120 deg rotation - cart. axis [1,-1,-1] 

 cryst.   s(47) = (     0          0         -1      )
                  (    -1          0          0      )
                  (     0         -1          0      )

 cart.    s(47) = (  0.0000000  0.0000000  1.0000000 )
                  (  1.0000000  0.0000000  0.0000000 )
                  (  0.0000000 -1.0000000  0.0000000 )


      isym = 48     inv. 120 deg rotation - cart. axis [-1,-1,1] 

 cryst.   s(48) = (    -1          1          0      )
                  (     0          1         -1      )
                  (     0          1          0      )

 cart.    s(48) = (  0.0000000  0.0000000  1.0000000 )
                  ( -1.0000000  0.0000000  0.0000000 )
                  (  0.0000000  1.0000000  0.0000000 )


     point group O_h (m-3m) 
     there are 10 classes
     the character table:

       E     8C3   3C2   6C4   6C2'  i     8S6   3s_h  6S4   6s_d 
A_1g   1.00  1.00  1.00  1.00  1.00  1.00  1.00  1.00  1.00  1.00
A_2g   1.00  1.00  1.00 -1.00 -1.00  1.00  1.00  1.00 -1.00 -1.00
E_g    2.00 -1.00  2.00  0.00  0.00  2.00 -1.00  2.00  0.00  0.00
T_1g   3.00  0.00 -1.00  1.00 -1.00  3.00  0.00 -1.00  1.00 -1.00
T_2g   3.00  0.00 -1.00 -1.00  1.00  3.00  0.00 -1.00 -1.00  1.00
A_1u   1.00  1.00  1.00  1.00  1.00 -1.00 -1.00 -1.00 -1.00 -1.00
A_2u   1.00  1.00  1.00 -1.00 -1.00 -1.00 -1.00 -1.00  1.00  1.00
E_u    2.00 -1.00  2.00  0.00  0.00 -2.00  1.00 -2.00  0.00  0.00
T_1u   3.00  0.00 -1.00  1.00 -1.00 -3.00  0.00  1.00 -1.00  1.00
T_2u   3.00  0.00 -1.00 -1.00  1.00 -3.00  0.00  1.00  1.00 -1.00

     the symmetry operations in each class and the name of the first element:

     E        1
          identity                                               
     8C3     17   19   20   18   24   21   22   23
          120 deg rotation - cart. axis [-1,-1,-1]               
     3C2      2    4    3
          180 deg rotation - cart. axis [0,0,1]                  
     6C4      7    8   15   16   12   11
           90 deg rotation - cart. axis [0,0,-1]                 
     6C2'     5    6   14   13   10    9
          180 deg rotation - cart. axis [1,1,0]                  
     i       25
          inversion                                              
     8S6     41   43   44   42   48   45   46   47
          inv. 120 deg rotation - cart. axis [-1,-1,-1]          
     3s_h    26   28   27
          inv. 180 deg rotation - cart. axis [0,0,1]             
     6S4     31   32   39   40   36   35
          inv.  90 deg rotation - cart. axis [0,0,-1]            
     6s_d    29   30   38   37   34   33
          inv. 180 deg rotation - cart. axis [1,1,0]             

   Cartesian axes

     site n.     atom                  positions (alat units)
         1           Pb  tau(   1) = (   0.0000000   0.0000000   0.0000000  )

   Crystallographic axes

     site n.     atom                  positions (cryst. coord.)
         1           Pb  tau(   1) = (  0.0000000  0.0000000  0.0000000  )

     number of k points=   328 (tetrahedron method)
                       cart. coord. in units 2pi/alat
        k(    1) = (   0.0000000   0.0000000   0.0000000), wk =   0.0001878
        k(    2) = (  -0.0454545   0.0454545  -0.0454545), wk =   0.0015026
        k(    3) = (  -0.0909091   0.0909091  -0.0909091), wk =   0.0015026
        k(    4) = (  -0.1363636   0.1363636  -0.1363636), wk =   0.0015026
        k(    5) = (  -0.1818182   0.1818182  -0.1818182), wk =   0.0015026
        k(    6) = (  -0.2272727   0.2272727  -0.2272727), wk =   0.0015026
        k(    7) = (  -0.2727273   0.2727273  -0.2727273), wk =   0.0015026
        k(    8) = (  -0.3181818   0.3181818  -0.3181818), wk =   0.0015026
        k(    9) = (  -0.3636364   0.3636364  -0.3636364), wk =   0.0015026
        k(   10) = (  -0.4090909   0.4090909  -0.4090909), wk =   0.0015026
        k(   11) = (  -0.4545455   0.4545455  -0.4545455), wk =   0.0015026
        k(   12) = (   0.5000000  -0.5000000   0.5000000), wk =   0.0007513
        k(   13) = (   0.0000000   0.0909091   0.0000000), wk =   0.0011270
        k(   14) = (  -0.0454545   0.1363636  -0.0454545), wk =   0.0045079
        k(   15) = (  -0.0909091   0.1818182  -0.0909091), wk =   0.0045079
        k(   16) = (  -0.1363636   0.2272727  -0.1363636), wk =   0.0045079
        k(   17) = (  -0.1818182   0.2727273  -0.1818182), wk =   0.0045079
        k(   18) = (  -0.2272727   0.3181818  -0.2272727), wk =   0.0045079
        k(   19) = (  -0.2727273   0.3636364  -0.2727273), wk =   0.0045079
        k(   20) = (  -0.3181818   0.4090909  -0.3181818), wk =   0.0045079
        k(   21) = (  -0.3636364   0.4545455  -0.3636364), wk =   0.0045079
        k(   22) = (  -0.4090909   0.5000000  -0.4090909), wk =   0.0045079
        k(   23) = (   0.5454545  -0.4545455   0.5454545), wk =   0.0045079
        k(   24) = (   0.5000000  -0.4090909   0.5000000), wk =   0.0045079
        k(   25) = (   0.4545455  -0.3636364   0.4545455), wk =   0.0045079
        k(   26) = (   0.4090909  -0.3181818   0.4090909), wk =   0.0045079
        k(   27) = (   0.3636364  -0.2727273   0.3636364), wk =   0.0045079
        k(   28) = (   0.3181818  -0.2272727   0.3181818), wk =   0.0045079
        k(   29) = (   0.2727273  -0.1818182   0.2727273), wk =   0.0045079
        k(   30) = (   0.2272727  -0.1363636   0.2272727), wk =   0.0045079
        k(   31) = (   0.1818182  -0.0909091   0.1818182), wk =   0.0045079
        k(   32) = (   0.1363636  -0.0454545   0.1363636), wk =   0.0045079
        k(   33) = (   0.0909091   0.0000000   0.0909091), wk =   0.0022539
        k(   34) = (   0.0000000   0.1818182   0.0000000), wk =   0.0011270
        k(   35) = (  -0.0454545   0.2272727  -0.0454545), wk =   0.0045079
        k(   36) = (  -0.0909091   0.2727273  -0.0909091), wk =   0.0045079
        k(   37) = (  -0.1363636   0.3181818  -0.1363636), wk =   0.0045079
        k(   38) = (  -0.1818182   0.3636364  -0.1818182), wk =   0.0045079
        k(   39) = (  -0.2272727   0.4090909  -0.2272727), wk =   0.0045079
        k(   40) = (  -0.2727273   0.4545455  -0.2727273), wk =   0.0045079
        k(   41) = (  -0.3181818   0.5000000  -0.3181818), wk =   0.0045079
        k(   42) = (  -0.3636364   0.5454545  -0.3636364), wk =   0.0045079
        k(   43) = (   0.5909091  -0.4090909   0.5909091), wk =   0.0045079
        k(   44) = (   0.5454545  -0.3636364   0.5454545), wk =   0.0045079
        k(   45) = (   0.5000000  -0.3181818   0.5000000), wk =   0.0045079
        k(   46) = (   0.4545455  -0.2727273   0.4545455), wk =   0.0045079
        k(   47) = (   0.4090909  -0.2272727   0.4090909), wk =   0.0045079
        k(   48) = (   0.3636364  -0.1818182   0.3636364), wk =   0.0045079
        k(   49) = (   0.3181818  -0.1363636   0.3181818), wk =   0.0045079
        k(   50) = (   0.2727273  -0.0909091   0.2727273), wk =   0.0045079
        k(   51) = (   0.2272727  -0.0454545   0.2272727), wk =   0.0045079
        k(   52) = (   0.1818182  -0.0000000   0.1818182), wk =   0.0022539
        k(   53) = (   0.0000000   0.2727273   0.0000000), wk =   0.0011270
        k(   54) = (  -0.0454545   0.3181818  -0.0454545), wk =   0.0045079
        k(   55) = (  -0.0909091   0.3636364  -0.0909091), wk =   0.0045079
        k(   56) = (  -0.1363636   0.4090909  -0.1363636), wk =   0.0045079
        k(   57) = (  -0.1818182   0.4545455  -0.1818182), wk =   0.0045079
        k(   58) = (  -0.2272727   0.5000000  -0.2272727), wk =   0.0045079
        k(   59) = (  -0.2727273   0.5454545  -0.2727273), wk =   0.0045079
        k(   60) = (  -0.3181818   0.5909091  -0.3181818), wk =   0.0045079
        k(   61) = (   0.6363636  -0.3636364   0.6363636), wk =   0.0045079
        k(   62) = (   0.5909091  -0.3181818   0.5909091), wk =   0.0045079
        k(   63) = (   0.5454545  -0.2727273   0.5454545), wk =   0.0045079
        k(   64) = (   0.5000000  -0.2272727   0.5000000), wk =   0.0045079
        k(   65) = (   0.4545455  -0.1818182   0.4545455), wk =   0.0045079
        k(   66) = (   0.4090909  -0.1363636   0.4090909), wk =   0.0045079
        k(   67) = (   0.3636364  -0.0909091   0.3636364), wk =   0.0045079
        k(   68) = (   0.3181818  -0.0454545   0.3181818), wk =   0.0045079
        k(   69) = (   0.2727273   0.0000000   0.2727273), wk =   0.0022539
        k(   70) = (   0.0000000   0.3636364   0.0000000), wk =   0.0011270
        k(   71) = (  -0.0454545   0.4090909  -0.0454545), wk =   0.0045079
        k(   72) = (  -0.0909091   0.4545455  -0.0909091), wk =   0.0045079
        k(   73) = (  -0.1363636   0.5000000  -0.1363636), wk =   0.0045079
        k(   74) = (  -0.1818182   0.5454545  -0.1818182), wk =   0.0045079
        k(   75) = (  -0.2272727   0.5909091  -0.2272727), wk =   0.0045079
        k(   76) = (  -0.2727273   0.6363636  -0.2727273), wk =   0.0045079
        k(   77) = (   0.6818182  -0.3181818   0.6818182), wk =   0.0045079
        k(   78) = (   0.6363636  -0.2727273   0.6363636), wk =   0.0045079
        k(   79) = (   0.5909091  -0.2272727   0.5909091), wk =   0.0045079
        k(   80) = (   0.5454545  -0.1818182   0.5454545), wk =   0.0045079
        k(   81) = (   0.5000000  -0.1363636   0.5000000), wk =   0.0045079
        k(   82) = (   0.4545455  -0.0909091   0.4545455), wk =   0.0045079
        k(   83) = (   0.4090909  -0.0454545   0.4090909), wk =   0.0045079
        k(   84) = (   0.3636364   0.0000000   0.3636364), wk =   0.0022539
        k(   85) = (   0.0000000   0.4545455   0.0000000), wk =   0.0011270
        k(   86) = (  -0.0454545   0.5000000  -0.0454545), wk =   0.0045079
        k(   87) = (  -0.0909091   0.5454545  -0.0909091), wk =   0.0045079
        k(   88) = (  -0.1363636   0.5909091  -0.1363636), wk =   0.0045079
        k(   89) = (  -0.1818182   0.6363636  -0.1818182), wk =   0.0045079
        k(   90) = (  -0.2272727   0.6818182  -0.2272727), wk =   0.0045079
        k(   91) = (   0.7272727  -0.2727273   0.7272727), wk =   0.0045079
        k(   92) = (   0.6818182  -0.2272727   0.6818182), wk =   0.0045079
        k(   93) = (   0.6363636  -0.1818182   0.6363636), wk =   0.0045079
        k(   94) = (   0.5909091  -0.1363636   0.5909091), wk =   0.0045079
        k(   95) = (   0.5454545  -0.0909091   0.5454545), wk =   0.0045079
        k(   96) = (   0.5000000  -0.0454545   0.5000000), wk =   0.0045079
        k(   97) = (   0.4545455   0.0000000   0.4545455), wk =   0.0022539
        k(   98) = (   0.0000000   0.5454545   0.0000000), wk =   0.0011270
        k(   99) = (  -0.0454545   0.5909091  -0.0454545), wk =   0.0045079
        k(  100) = (  -0.0909091   0.6363636  -0.0909091), wk =   0.0045079
        k(  101) = (  -0.1363636   0.6818182  -0.1363636), wk =   0.0045079
        k(  102) = (  -0.1818182   0.7272727  -0.1818182), wk =   0.0045079
        k(  103) = (   0.7727273  -0.2272727   0.7727273), wk =   0.0045079
        k(  104) = (   0.7272727  -0.1818182   0.7272727), wk =   0.0045079
        k(  105) = (   0.6818182  -0.1363636   0.6818182), wk =   0.0045079
        k(  106) = (   0.6363636  -0.0909091   0.6363636), wk =   0.0045079
        k(  107) = (   0.5909091  -0.0454545   0.5909091), wk =   0.0045079
        k(  108) = (   0.5454545   0.0000000   0.5454545), wk =   0.0022539
        k(  109) = (   0.0000000   0.6363636   0.0000000), wk =   0.0011270
        k(  110) = (  -0.0454545   0.6818182  -0.0454545), wk =   0.0045079
        k(  111) = (  -0.0909091   0.7272727  -0.0909091), wk =   0.0045079
        k(  112) = (  -0.1363636   0.7727273  -0.1363636), wk =   0.0045079
        k(  113) = (   0.8181818  -0.1818182   0.8181818), wk =   0.0045079
        k(  114) = (   0.7727273  -0.1363636   0.7727273), wk =   0.0045079
        k(  115) = (   0.7272727  -0.0909091   0.7272727), wk =   0.0045079
        k(  116) = (   0.6818182  -0.0454545   0.6818182), wk =   0.0045079
        k(  117) = (   0.6363636   0.0000000   0.6363636), wk =   0.0022539
        k(  118) = (   0.0000000   0.7272727   0.0000000), wk =   0.0011270
        k(  119) = (  -0.0454545   0.7727273  -0.0454545), wk =   0.0045079
        k(  120) = (  -0.0909091   0.8181818  -0.0909091), wk =   0.0045079
        k(  121) = (   0.8636364  -0.1363636   0.8636364), wk =   0.0045079
        k(  122) = (   0.8181818  -0.0909091   0.8181818), wk =   0.0045079
        k(  123) = (   0.7727273  -0.0454545   0.7727273), wk =   0.0045079
        k(  124) = (   0.7272727   0.0000000   0.7272727), wk =   0.0022539
        k(  125) = (   0.0000000   0.8181818   0.0000000), wk =   0.0011270
        k(  126) = (  -0.0454545   0.8636364  -0.0454545), wk =   0.0045079
        k(  127) = (   0.9090909  -0.0909091   0.9090909), wk =   0.0045079
        k(  128) = (   0.8636364  -0.0454545   0.8636364), wk =   0.0045079
        k(  129) = (   0.8181818   0.0000000   0.8181818), wk =   0.0022539
        k(  130) = (   0.0000000   0.9090909   0.0000000), wk =   0.0011270
        k(  131) = (   0.9545455  -0.0454545   0.9545455), wk =   0.0045079
        k(  132) = (   0.9090909   0.0000000   0.9090909), wk =   0.0022539
        k(  133) = (   0.0000000  -1.0000000   0.0000000), wk =   0.0005635
        k(  134) = (  -0.0909091   0.1818182   0.0000000), wk =   0.0045079
        k(  135) = (  -0.1363636   0.2272727  -0.0454545), wk =   0.0090158
        k(  136) = (  -0.1818182   0.2727273  -0.0909091), wk =   0.0090158
        k(  137) = (  -0.2272727   0.3181818  -0.1363636), wk =   0.0090158
        k(  138) = (  -0.2727273   0.3636364  -0.1818182), wk =   0.0090158
        k(  139) = (  -0.3181818   0.4090909  -0.2272727), wk =   0.0090158
        k(  140) = (  -0.3636364   0.4545455  -0.2727273), wk =   0.0090158
        k(  141) = (  -0.4090909   0.5000000  -0.3181818), wk =   0.0090158
        k(  142) = (   0.5454545  -0.4545455   0.6363636), wk =   0.0090158
        k(  143) = (   0.5000000  -0.4090909   0.5909091), wk =   0.0045079
        k(  144) = (  -0.0909091   0.2727273   0.0000000), wk =   0.0045079
        k(  145) = (  -0.1363636   0.3181818  -0.0454545), wk =   0.0090158
        k(  146) = (  -0.1818182   0.3636364  -0.0909091), wk =   0.0090158
        k(  147) = (  -0.2272727   0.4090909  -0.1363636), wk =   0.0090158
        k(  148) = (  -0.2727273   0.4545455  -0.1818182), wk =   0.0090158
        k(  149) = (  -0.3181818   0.5000000  -0.2272727), wk =   0.0090158
        k(  150) = (  -0.3636364   0.5454545  -0.2727273), wk =   0.0090158
        k(  151) = (   0.5909091  -0.4090909   0.6818182), wk =   0.0090158
        k(  152) = (   0.5454545  -0.3636364   0.6363636), wk =   0.0090158
        k(  153) = (   0.5000000  -0.3181818   0.5909091), wk =   0.0090158
        k(  154) = (   0.4545455  -0.2727273   0.5454545), wk =   0.0090158
        k(  155) = (   0.4090909  -0.2272727   0.5000000), wk =   0.0090158
        k(  156) = (   0.3636364  -0.1818182   0.4545455), wk =   0.0090158
        k(  157) = (   0.3181818  -0.1363636   0.4090909), wk =   0.0090158
        k(  158) = (   0.2727273  -0.0909091   0.3636364), wk =   0.0090158
        k(  159) = (   0.2272727  -0.0454545   0.3181818), wk =   0.0090158
        k(  160) = (   0.1818182  -0.0000000   0.2727273), wk =   0.0045079
        k(  161) = (  -0.0909091   0.3636364   0.0000000), wk =   0.0045079
        k(  162) = (  -0.1363636   0.4090909  -0.0454545), wk =   0.0090158
        k(  163) = (  -0.1818182   0.4545455  -0.0909091), wk =   0.0090158
        k(  164) = (  -0.2272727   0.5000000  -0.1363636), wk =   0.0090158
        k(  165) = (  -0.2727273   0.5454545  -0.1818182), wk =   0.0090158
        k(  166) = (  -0.3181818   0.5909091  -0.2272727), wk =   0.0090158
        k(  167) = (   0.6363636  -0.3636364   0.7272727), wk =   0.0090158
        k(  168) = (   0.5909091  -0.3181818   0.6818182), wk =   0.0090158
        k(  169) = (   0.5454545  -0.2727273   0.6363636), wk =   0.0090158
        k(  170) = (   0.5000000  -0.2272727   0.5909091), wk =   0.0090158
        k(  171) = (   0.4545455  -0.1818182   0.5454545), wk =   0.0090158
        k(  172) = (   0.4090909  -0.1363636   0.5000000), wk =   0.0090158
        k(  173) = (   0.3636364  -0.0909091   0.4545455), wk =   0.0090158
        k(  174) = (   0.3181818  -0.0454545   0.4090909), wk =   0.0090158
        k(  175) = (   0.2727273   0.0000000   0.3636364), wk =   0.0045079
        k(  176) = (  -0.0909091   0.4545455   0.0000000), wk =   0.0045079
        k(  177) = (  -0.1363636   0.5000000  -0.0454545), wk =   0.0090158
        k(  178) = (  -0.1818182   0.5454545  -0.0909091), wk =   0.0090158
        k(  179) = (  -0.2272727   0.5909091  -0.1363636), wk =   0.0090158
        k(  180) = (  -0.2727273   0.6363636  -0.1818182), wk =   0.0090158
        k(  181) = (   0.6818182  -0.3181818   0.7727273), wk =   0.0090158
        k(  182) = (   0.6363636  -0.2727273   0.7272727), wk =   0.0090158
        k(  183) = (   0.5909091  -0.2272727   0.6818182), wk =   0.0090158
        k(  184) = (   0.5454545  -0.1818182   0.6363636), wk =   0.0090158
        k(  185) = (   0.5000000  -0.1363636   0.5909091), wk =   0.0090158
        k(  186) = (   0.4545455  -0.0909091   0.5454545), wk =   0.0090158
        k(  187) = (   0.4090909  -0.0454545   0.5000000), wk =   0.0090158
        k(  188) = (   0.3636364   0.0000000   0.4545455), wk =   0.0045079
        k(  189) = (  -0.0909091   0.5454545   0.0000000), wk =   0.0045079
        k(  190) = (  -0.1363636   0.5909091  -0.0454545), wk =   0.0090158
        k(  191) = (  -0.1818182   0.6363636  -0.0909091), wk =   0.0090158
        k(  192) = (  -0.2272727   0.6818182  -0.1363636), wk =   0.0090158
        k(  193) = (   0.7272727  -0.2727273   0.8181818), wk =   0.0090158
        k(  194) = (   0.6818182  -0.2272727   0.7727273), wk =   0.0090158
        k(  195) = (   0.6363636  -0.1818182   0.7272727), wk =   0.0090158
        k(  196) = (   0.5909091  -0.1363636   0.6818182), wk =   0.0090158
        k(  197) = (   0.5454545  -0.0909091   0.6363636), wk =   0.0090158
        k(  198) = (   0.5000000  -0.0454545   0.5909091), wk =   0.0090158
        k(  199) = (   0.4545455  -0.0000000   0.5454545), wk =   0.0045079
        k(  200) = (  -0.0909091   0.6363636   0.0000000), wk =   0.0045079
        k(  201) = (  -0.1363636   0.6818182  -0.0454545), wk =   0.0090158
        k(  202) = (  -0.1818182   0.7272727  -0.0909091), wk =   0.0090158
        k(  203) = (   0.7727273  -0.2272727   0.8636364), wk =   0.0090158
        k(  204) = (   0.7272727  -0.1818182   0.8181818), wk =   0.0090158
        k(  205) = (   0.6818182  -0.1363636   0.7727273), wk =   0.0090158
        k(  206) = (   0.6363636  -0.0909091   0.7272727), wk =   0.0090158
        k(  207) = (   0.5909091  -0.0454545   0.6818182), wk =   0.0090158
        k(  208) = (   0.5454545   0.0000000   0.6363636), wk =   0.0045079
        k(  209) = (  -0.0909091   0.7272727   0.0000000), wk =   0.0045079
        k(  210) = (  -0.1363636   0.7727273  -0.0454545), wk =   0.0090158
        k(  211) = (   0.8181818  -0.1818182   0.9090909), wk =   0.0090158
        k(  212) = (   0.7727273  -0.1363636   0.8636364), wk =   0.0090158
        k(  213) = (   0.7272727  -0.0909091   0.8181818), wk =   0.0090158
        k(  214) = (   0.6818182  -0.0454545   0.7727273), wk =   0.0090158
        k(  215) = (   0.6363636   0.0000000   0.7272727), wk =   0.0045079
        k(  216) = (  -0.0909091   0.8181818   0.0000000), wk =   0.0045079
        k(  217) = (   0.8636364  -0.1363636   0.9545455), wk =   0.0090158
        k(  218) = (   0.8181818  -0.0909091   0.9090909), wk =   0.0090158
        k(  219) = (   0.7727273  -0.0454545   0.8636364), wk =   0.0090158
        k(  220) = (   0.7272727   0.0000000   0.8181818), wk =   0.0045079
        k(  221) = (   0.9090909  -0.0909091   1.0000000), wk =   0.0045079
        k(  222) = (   0.8636364  -0.0454545   0.9545455), wk =   0.0090158
        k(  223) = (   0.8181818   0.0000000   0.9090909), wk =   0.0045079
        k(  224) = (  -0.0909091  -1.0000000   0.0000000), wk =   0.0022539
        k(  225) = (  -0.1818182   0.3636364   0.0000000), wk =   0.0045079
        k(  226) = (  -0.2272727   0.4090909  -0.0454545), wk =   0.0090158
        k(  227) = (  -0.2727273   0.4545455  -0.0909091), wk =   0.0090158
        k(  228) = (  -0.3181818   0.5000000  -0.1363636), wk =   0.0090158
        k(  229) = (  -0.3636364   0.5454545  -0.1818182), wk =   0.0090158
        k(  230) = (   0.5909091  -0.4090909   0.7727273), wk =   0.0090158
        k(  231) = (   0.5454545  -0.3636364   0.7272727), wk =   0.0090158
        k(  232) = (   0.5000000  -0.3181818   0.6818182), wk =   0.0045079
        k(  233) = (  -0.1818182   0.4545455   0.0000000), wk =   0.0045079
        k(  234) = (  -0.2272727   0.5000000  -0.0454545), wk =   0.0090158
        k(  235) = (  -0.2727273   0.5454545  -0.0909091), wk =   0.0090158
        k(  236) = (  -0.3181818   0.5909091  -0.1363636), wk =   0.0090158
        k(  237) = (   0.6363636  -0.3636364   0.8181818), wk =   0.0090158
        k(  238) = (   0.5909091  -0.3181818   0.7727273), wk =   0.0090158
        k(  239) = (   0.5454545  -0.2727273   0.7272727), wk =   0.0090158
        k(  240) = (   0.5000000  -0.2272727   0.6818182), wk =   0.0090158
        k(  241) = (   0.4545455  -0.1818182   0.6363636), wk =   0.0090158
        k(  242) = (   0.4090909  -0.1363636   0.5909091), wk =   0.0090158
        k(  243) = (   0.3636364  -0.0909091   0.5454545), wk =   0.0090158
        k(  244) = (   0.3181818  -0.0454545   0.5000000), wk =   0.0090158
        k(  245) = (   0.2727273   0.0000000   0.4545455), wk =   0.0045079
        k(  246) = (  -0.1818182   0.5454545   0.0000000), wk =   0.0045079
        k(  247) = (  -0.2272727   0.5909091  -0.0454545), wk =   0.0090158
        k(  248) = (  -0.2727273   0.6363636  -0.0909091), wk =   0.0090158
        k(  249) = (   0.6818182  -0.3181818   0.8636364), wk =   0.0090158
        k(  250) = (   0.6363636  -0.2727273   0.8181818), wk =   0.0090158
        k(  251) = (   0.5909091  -0.2272727   0.7727273), wk =   0.0090158
        k(  252) = (   0.5454545  -0.1818182   0.7272727), wk =   0.0090158
        k(  253) = (   0.5000000  -0.1363636   0.6818182), wk =   0.0090158
        k(  254) = (   0.4545455  -0.0909091   0.6363636), wk =   0.0090158
        k(  255) = (   0.4090909  -0.0454545   0.5909091), wk =   0.0090158
        k(  256) = (   0.3636364   0.0000000   0.5454545), wk =   0.0045079
        k(  257) = (  -0.1818182   0.6363636  -0.0000000), wk =   0.0045079
        k(  258) = (  -0.2272727   0.6818182  -0.0454545), wk =   0.0090158
        k(  259) = (   0.7272727  -0.2727273   0.9090909), wk =   0.0090158
        k(  260) = (   0.6818182  -0.2272727   0.8636364), wk =   0.0090158
        k(  261) = (   0.6363636  -0.1818182   0.8181818), wk =   0.0090158
        k(  262) = (   0.5909091  -0.1363636   0.7727273), wk =   0.0090158
        k(  263) = (   0.5454545  -0.0909091   0.7272727), wk =   0.0090158
        k(  264) = (   0.5000000  -0.0454545   0.6818182), wk =   0.0090158
        k(  265) = (   0.4545455   0.0000000   0.6363636), wk =   0.0045079
        k(  266) = (  -0.1818182   0.7272727   0.0000000), wk =   0.0045079
        k(  267) = (   0.7727273  -0.2272727   0.9545455), wk =   0.0090158
        k(  268) = (   0.7272727  -0.1818182   0.9090909), wk =   0.0090158
        k(  269) = (   0.6818182  -0.1363636   0.8636364), wk =   0.0090158
        k(  270) = (   0.6363636  -0.0909091   0.8181818), wk =   0.0090158
        k(  271) = (   0.5909091  -0.0454545   0.7727273), wk =   0.0090158
        k(  272) = (   0.5454545   0.0000000   0.7272727), wk =   0.0045079
        k(  273) = (   0.8181818  -0.1818182   1.0000000), wk =   0.0045079
        k(  274) = (   0.7727273  -0.1363636   0.9545455), wk =   0.0090158
        k(  275) = (   0.7272727  -0.0909091   0.9090909), wk =   0.0090158
        k(  276) = (   0.6818182  -0.0454545   0.8636364), wk =   0.0090158
        k(  277) = (   0.6363636   0.0000000   0.8181818), wk =   0.0045079
        k(  278) = (   0.8181818  -0.0909091   1.0000000), wk =   0.0045079
        k(  279) = (   0.7727273  -0.0454545   0.9545455), wk =   0.0090158
        k(  280) = (   0.7272727   0.0000000   0.9090909), wk =   0.0045079
        k(  281) = (  -0.1818182  -1.0000000   0.0000000), wk =   0.0022539
        k(  282) = (  -0.2727273   0.5454545   0.0000000), wk =   0.0045079
        k(  283) = (  -0.3181818   0.5909091  -0.0454545), wk =   0.0090158
        k(  284) = (   0.6363636  -0.3636364   0.9090909), wk =   0.0090158
        k(  285) = (   0.5909091  -0.3181818   0.8636364), wk =   0.0090158
        k(  286) = (   0.5454545  -0.2727273   0.8181818), wk =   0.0090158
        k(  287) = (   0.5000000  -0.2272727   0.7727273), wk =   0.0045079
        k(  288) = (  -0.2727273   0.6363636   0.0000000), wk =   0.0045079
        k(  289) = (   0.6818182  -0.3181818   0.9545455), wk =   0.0090158
        k(  290) = (   0.6363636  -0.2727273   0.9090909), wk =   0.0090158
        k(  291) = (   0.5909091  -0.2272727   0.8636364), wk =   0.0090158
        k(  292) = (   0.5454545  -0.1818182   0.8181818), wk =   0.0090158
        k(  293) = (   0.5000000  -0.1363636   0.7727273), wk =   0.0090158
        k(  294) = (   0.4545455  -0.0909091   0.7272727), wk =   0.0090158
        k(  295) = (   0.4090909  -0.0454545   0.6818182), wk =   0.0090158
        k(  296) = (   0.3636364   0.0000000   0.6363636), wk =   0.0045079
        k(  297) = (   0.7272727  -0.2727273   1.0000000), wk =   0.0045079
        k(  298) = (   0.6818182  -0.2272727   0.9545455), wk =   0.0090158
        k(  299) = (   0.6363636  -0.1818182   0.9090909), wk =   0.0090158
        k(  300) = (   0.5909091  -0.1363636   0.8636364), wk =   0.0090158
        k(  301) = (   0.5454545  -0.0909091   0.8181818), wk =   0.0090158
        k(  302) = (   0.5000000  -0.0454545   0.7727273), wk =   0.0090158
        k(  303) = (   0.4545455   0.0000000   0.7272727), wk =   0.0045079
        k(  304) = (   0.7272727  -0.1818182   1.0000000), wk =   0.0045079
        k(  305) = (   0.6818182  -0.1363636   0.9545455), wk =   0.0090158
        k(  306) = (   0.6363636  -0.0909091   0.9090909), wk =   0.0090158
        k(  307) = (   0.5909091  -0.0454545   0.8636364), wk =   0.0090158
        k(  308) = (   0.5454545   0.0000000   0.8181818), wk =   0.0045079
        k(  309) = (   0.7272727  -0.0909091   1.0000000), wk =   0.0045079
        k(  310) = (   0.6818182  -0.0454545   0.9545455), wk =   0.0090158
        k(  311) = (   0.6363636  -0.0000000   0.9090909), wk =   0.0045079
        k(  312) = (  -0.2727273  -1.0000000   0.0000000), wk =   0.0022539
        k(  313) = (   0.6363636  -0.2727273   1.0000000), wk =   0.0045079
        k(  314) = (   0.5909091  -0.2272727   0.9545455), wk =   0.0090158
        k(  315) = (   0.5454545  -0.1818182   0.9090909), wk =   0.0090158
        k(  316) = (   0.5000000  -0.1363636   0.8636364), wk =   0.0045079
        k(  317) = (   0.6363636  -0.1818182   1.0000000), wk =   0.0045079
        k(  318) = (   0.5909091  -0.1363636   0.9545455), wk =   0.0090158
        k(  319) = (   0.5454545  -0.0909091   0.9090909), wk =   0.0090158
        k(  320) = (   0.5000000  -0.0454545   0.8636364), wk =   0.0090158
        k(  321) = (   0.4545455   0.0000000   0.8181818), wk =   0.0045079
        k(  322) = (   0.6363636  -0.0909091   1.0000000), wk =   0.0045079
        k(  323) = (   0.5909091  -0.0454545   0.9545455), wk =   0.0090158
        k(  324) = (   0.5454545   0.0000000   0.9090909), wk =   0.0045079
        k(  325) = (  -0.3636364  -1.0000000   0.0000000), wk =   0.0022539
        k(  326) = (   0.5454545  -0.0909091   1.0000000), wk =   0.0045079
        k(  327) = (   0.5000000  -0.0454545   0.9545455), wk =   0.0045079
        k(  328) = (  -0.4545455  -1.0000000   0.0000000), wk =   0.0022539

                       cryst. coord.
        k(    1) = (   0.0000000   0.0000000   0.0000000), wk =   0.0001878
        k(    2) = (   0.0000000   0.0000000   0.0454545), wk =   0.0015026
        k(    3) = (   0.0000000   0.0000000   0.0909091), wk =   0.0015026
        k(    4) = (   0.0000000   0.0000000   0.1363636), wk =   0.0015026
        k(    5) = (   0.0000000   0.0000000   0.1818182), wk =   0.0015026
        k(    6) = (   0.0000000   0.0000000   0.2272727), wk =   0.0015026
        k(    7) = (   0.0000000   0.0000000   0.2727273), wk =   0.0015026
        k(    8) = (   0.0000000   0.0000000   0.3181818), wk =   0.0015026
        k(    9) = (   0.0000000   0.0000000   0.3636364), wk =   0.0015026
        k(   10) = (   0.0000000   0.0000000   0.4090909), wk =   0.0015026
        k(   11) = (   0.0000000   0.0000000   0.4545455), wk =   0.0015026
        k(   12) = (   0.0000000   0.0000000  -0.5000000), wk =   0.0007513
        k(   13) = (   0.0000000   0.0454545   0.0454545), wk =   0.0011270
        k(   14) = (   0.0000000   0.0454545   0.0909091), wk =   0.0045079
        k(   15) = (   0.0000000   0.0454545   0.1363636), wk =   0.0045079
        k(   16) = (   0.0000000   0.0454545   0.1818182), wk =   0.0045079
        k(   17) = (   0.0000000   0.0454545   0.2272727), wk =   0.0045079
        k(   18) = (   0.0000000   0.0454545   0.2727273), wk =   0.0045079
        k(   19) = (   0.0000000   0.0454545   0.3181818), wk =   0.0045079
        k(   20) = (   0.0000000   0.0454545   0.3636364), wk =   0.0045079
        k(   21) = (   0.0000000   0.0454545   0.4090909), wk =   0.0045079
        k(   22) = (   0.0000000   0.0454545   0.4545455), wk =   0.0045079
        k(   23) = (   0.0000000   0.0454545  -0.5000000), wk =   0.0045079
        k(   24) = (   0.0000000   0.0454545  -0.4545455), wk =   0.0045079
        k(   25) = (   0.0000000   0.0454545  -0.4090909), wk =   0.0045079
        k(   26) = (   0.0000000   0.0454545  -0.3636364), wk =   0.0045079
        k(   27) = (   0.0000000   0.0454545  -0.3181818), wk =   0.0045079
        k(   28) = (   0.0000000   0.0454545  -0.2727273), wk =   0.0045079
        k(   29) = (   0.0000000   0.0454545  -0.2272727), wk =   0.0045079
        k(   30) = (   0.0000000   0.0454545  -0.1818182), wk =   0.0045079
        k(   31) = (   0.0000000   0.0454545  -0.1363636), wk =   0.0045079
        k(   32) = (   0.0000000   0.0454545  -0.0909091), wk =   0.0045079
        k(   33) = (   0.0000000   0.0454545  -0.0454545), wk =   0.0022539
        k(   34) = (   0.0000000   0.0909091   0.0909091), wk =   0.0011270
        k(   35) = (   0.0000000   0.0909091   0.1363636), wk =   0.0045079
        k(   36) = (   0.0000000   0.0909091   0.1818182), wk =   0.0045079
        k(   37) = (   0.0000000   0.0909091   0.2272727), wk =   0.0045079
        k(   38) = (   0.0000000   0.0909091   0.2727273), wk =   0.0045079
        k(   39) = (   0.0000000   0.0909091   0.3181818), wk =   0.0045079
        k(   40) = (   0.0000000   0.0909091   0.3636364), wk =   0.0045079
        k(   41) = (   0.0000000   0.0909091   0.4090909), wk =   0.0045079
        k(   42) = (   0.0000000   0.0909091   0.4545455), wk =   0.0045079
        k(   43) = (   0.0000000   0.0909091  -0.5000000), wk =   0.0045079
        k(   44) = (   0.0000000   0.0909091  -0.4545455), wk =   0.0045079
        k(   45) = (   0.0000000   0.0909091  -0.4090909), wk =   0.0045079
        k(   46) = (   0.0000000   0.0909091  -0.3636364), wk =   0.0045079
        k(   47) = (   0.0000000   0.0909091  -0.3181818), wk =   0.0045079
        k(   48) = (   0.0000000   0.0909091  -0.2727273), wk =   0.0045079
        k(   49) = (   0.0000000   0.0909091  -0.2272727), wk =   0.0045079
        k(   50) = (   0.0000000   0.0909091  -0.1818182), wk =   0.0045079
        k(   51) = (   0.0000000   0.0909091  -0.1363636), wk =   0.0045079
        k(   52) = (   0.0000000   0.0909091  -0.0909091), wk =   0.0022539
        k(   53) = (   0.0000000   0.1363636   0.1363636), wk =   0.0011270
        k(   54) = (   0.0000000   0.1363636   0.1818182), wk =   0.0045079
        k(   55) = (   0.0000000   0.1363636   0.2272727), wk =   0.0045079
        k(   56) = (   0.0000000   0.1363636   0.2727273), wk =   0.0045079
        k(   57) = (   0.0000000   0.1363636   0.3181818), wk =   0.0045079
        k(   58) = (   0.0000000   0.1363636   0.3636364), wk =   0.0045079
        k(   59) = (   0.0000000   0.1363636   0.4090909), wk =   0.0045079
        k(   60) = (   0.0000000   0.1363636   0.4545455), wk =   0.0045079
        k(   61) = (   0.0000000   0.1363636  -0.5000000), wk =   0.0045079
        k(   62) = (   0.0000000   0.1363636  -0.4545455), wk =   0.0045079
        k(   63) = (   0.0000000   0.1363636  -0.4090909), wk =   0.0045079
        k(   64) = (   0.0000000   0.1363636  -0.3636364), wk =   0.0045079
        k(   65) = (   0.0000000   0.1363636  -0.3181818), wk =   0.0045079
        k(   66) = (   0.0000000   0.1363636  -0.2727273), wk =   0.0045079
        k(   67) = (   0.0000000   0.1363636  -0.2272727), wk =   0.0045079
        k(   68) = (   0.0000000   0.1363636  -0.1818182), wk =   0.0045079
        k(   69) = (   0.0000000   0.1363636  -0.1363636), wk =   0.0022539
        k(   70) = (   0.0000000   0.1818182   0.1818182), wk =   0.0011270
        k(   71) = (   0.0000000   0.1818182   0.2272727), wk =   0.0045079
        k(   72) = (   0.0000000   0.1818182   0.2727273), wk =   0.0045079
        k(   73) = (   0.0000000   0.1818182   0.3181818), wk =   0.0045079
        k(   74) = (   0.0000000   0.1818182   0.3636364), wk =   0.0045079
        k(   75) = (   0.0000000   0.1818182   0.4090909), wk =   0.0045079
        k(   76) = (   0.0000000   0.1818182   0.4545455), wk =   0.0045079
        k(   77) = (   0.0000000   0.1818182  -0.5000000), wk =   0.0045079
        k(   78) = (   0.0000000   0.1818182  -0.4545455), wk =   0.0045079
        k(   79) = (   0.0000000   0.1818182  -0.4090909), wk =   0.0045079
        k(   80) = (   0.0000000   0.1818182  -0.3636364), wk =   0.0045079
        k(   81) = (   0.0000000   0.1818182  -0.3181818), wk =   0.0045079
        k(   82) = (   0.0000000   0.1818182  -0.2727273), wk =   0.0045079
        k(   83) = (   0.0000000   0.1818182  -0.2272727), wk =   0.0045079
        k(   84) = (   0.0000000   0.1818182  -0.1818182), wk =   0.0022539
        k(   85) = (   0.0000000   0.2272727   0.2272727), wk =   0.0011270
        k(   86) = (   0.0000000   0.2272727   0.2727273), wk =   0.0045079
        k(   87) = (   0.0000000   0.2272727   0.3181818), wk =   0.0045079
        k(   88) = (   0.0000000   0.2272727   0.3636364), wk =   0.0045079
        k(   89) = (   0.0000000   0.2272727   0.4090909), wk =   0.0045079
        k(   90) = (   0.0000000   0.2272727   0.4545455), wk =   0.0045079
        k(   91) = (   0.0000000   0.2272727  -0.5000000), wk =   0.0045079
        k(   92) = (   0.0000000   0.2272727  -0.4545455), wk =   0.0045079
        k(   93) = (   0.0000000   0.2272727  -0.4090909), wk =   0.0045079
        k(   94) = (   0.0000000   0.2272727  -0.3636364), wk =   0.0045079
        k(   95) = (   0.0000000   0.2272727  -0.3181818), wk =   0.0045079
        k(   96) = (   0.0000000   0.2272727  -0.2727273), wk =   0.0045079
        k(   97) = (   0.0000000   0.2272727  -0.2272727), wk =   0.0022539
        k(   98) = (   0.0000000   0.2727273   0.2727273), wk =   0.0011270
        k(   99) = (   0.0000000   0.2727273   0.3181818), wk =   0.0045079
        k(  100) = (   0.0000000   0.2727273   0.3636364), wk =   0.0045079
        k(  101) = (   0.0000000   0.2727273   0.4090909), wk =   0.0045079
        k(  102) = (   0.0000000   0.2727273   0.4545455), wk =   0.0045079
        k(  103) = (   0.0000000   0.2727273  -0.5000000), wk =   0.0045079
        k(  104) = (   0.0000000   0.2727273  -0.4545455), wk =   0.0045079
        k(  105) = (   0.0000000   0.2727273  -0.4090909), wk =   0.0045079
        k(  106) = (   0.0000000   0.2727273  -0.3636364), wk =   0.0045079
        k(  107) = (   0.0000000   0.2727273  -0.3181818), wk =   0.0045079
        k(  108) = (   0.0000000   0.2727273  -0.2727273), wk =   0.0022539
        k(  109) = (   0.0000000   0.3181818   0.3181818), wk =   0.0011270
        k(  110) = (   0.0000000   0.3181818   0.3636364), wk =   0.0045079
        k(  111) = (   0.0000000   0.3181818   0.4090909), wk =   0.0045079
        k(  112) = (   0.0000000   0.3181818   0.4545455), wk =   0.0045079
        k(  113) = (   0.0000000   0.3181818  -0.5000000), wk =   0.0045079
        k(  114) = (   0.0000000   0.3181818  -0.4545455), wk =   0.0045079
        k(  115) = (   0.0000000   0.3181818  -0.4090909), wk =   0.0045079
        k(  116) = (   0.0000000   0.3181818  -0.3636364), wk =   0.0045079
        k(  117) = (   0.0000000   0.3181818  -0.3181818), wk =   0.0022539
        k(  118) = (   0.0000000   0.3636364   0.3636364), wk =   0.0011270
        k(  119) = (   0.0000000   0.3636364   0.4090909), wk =   0.0045079
        k(  120) = (   0.0000000   0.3636364   0.4545455), wk =   0.0045079
        k(  121) = (   0.0000000   0.3636364  -0.5000000), wk =   0.0045079
        k(  122) = (   0.0000000   0.3636364  -0.4545455), wk =   0.0045079
        k(  123) = (   0.0000000   0.3636364  -0.4090909), wk =   0.0045079
        k(  124) = (   0.0000000   0.3636364  -0.3636364), wk =   0.0022539
        k(  125) = (   0.0000000   0.4090909   0.4090909), wk =   0.0011270
        k(  126) = (   0.0000000   0.4090909   0.4545455), wk =   0.0045079
        k(  127) = (   0.0000000   0.4090909  -0.5000000), wk =   0.0045079
        k(  128) = (   0.0000000   0.4090909  -0.4545455), wk =   0.0045079
        k(  129) = (   0.0000000   0.4090909  -0.4090909), wk =   0.0022539
        k(  130) = (   0.0000000   0.4545455   0.4545455), wk =   0.0011270
        k(  131) = (   0.0000000   0.4545455  -0.5000000), wk =   0.0045079
        k(  132) = (   0.0000000   0.4545455  -0.4545455), wk =   0.0022539
        k(  133) = (   0.0000000  -0.5000000  -0.5000000), wk =   0.0005635
        k(  134) = (   0.0454545   0.0909091   0.1363636), wk =   0.0045079
        k(  135) = (   0.0454545   0.0909091   0.1818182), wk =   0.0090158
        k(  136) = (   0.0454545   0.0909091   0.2272727), wk =   0.0090158
        k(  137) = (   0.0454545   0.0909091   0.2727273), wk =   0.0090158
        k(  138) = (   0.0454545   0.0909091   0.3181818), wk =   0.0090158
        k(  139) = (   0.0454545   0.0909091   0.3636364), wk =   0.0090158
        k(  140) = (   0.0454545   0.0909091   0.4090909), wk =   0.0090158
        k(  141) = (   0.0454545   0.0909091   0.4545455), wk =   0.0090158
        k(  142) = (   0.0454545   0.0909091  -0.5000000), wk =   0.0090158
        k(  143) = (   0.0454545   0.0909091  -0.4545455), wk =   0.0045079
        k(  144) = (   0.0454545   0.1363636   0.1818182), wk =   0.0045079
        k(  145) = (   0.0454545   0.1363636   0.2272727), wk =   0.0090158
        k(  146) = (   0.0454545   0.1363636   0.2727273), wk =   0.0090158
        k(  147) = (   0.0454545   0.1363636   0.3181818), wk =   0.0090158
        k(  148) = (   0.0454545   0.1363636   0.3636364), wk =   0.0090158
        k(  149) = (   0.0454545   0.1363636   0.4090909), wk =   0.0090158
        k(  150) = (   0.0454545   0.1363636   0.4545455), wk =   0.0090158
        k(  151) = (   0.0454545   0.1363636  -0.5000000), wk =   0.0090158
        k(  152) = (   0.0454545   0.1363636  -0.4545455), wk =   0.0090158
        k(  153) = (   0.0454545   0.1363636  -0.4090909), wk =   0.0090158
        k(  154) = (   0.0454545   0.1363636  -0.3636364), wk =   0.0090158
        k(  155) = (   0.0454545   0.1363636  -0.3181818), wk =   0.0090158
        k(  156) = (   0.0454545   0.1363636  -0.2727273), wk =   0.0090158
        k(  157) = (   0.0454545   0.1363636  -0.2272727), wk =   0.0090158
        k(  158) = (   0.0454545   0.1363636  -0.1818182), wk =   0.0090158
        k(  159) = (   0.0454545   0.1363636  -0.1363636), wk =   0.0090158
        k(  160) = (   0.0454545   0.1363636  -0.0909091), wk =   0.0045079
        k(  161) = (   0.0454545   0.1818182   0.2272727), wk =   0.0045079
        k(  162) = (   0.0454545   0.1818182   0.2727273), wk =   0.0090158
        k(  163) = (   0.0454545   0.1818182   0.3181818), wk =   0.0090158
        k(  164) = (   0.0454545   0.1818182   0.3636364), wk =   0.0090158
        k(  165) = (   0.0454545   0.1818182   0.4090909), wk =   0.0090158
        k(  166) = (   0.0454545   0.1818182   0.4545455), wk =   0.0090158
        k(  167) = (   0.0454545   0.1818182  -0.5000000), wk =   0.0090158
        k(  168) = (   0.0454545   0.1818182  -0.4545455), wk =   0.0090158
        k(  169) = (   0.0454545   0.1818182  -0.4090909), wk =   0.0090158
        k(  170) = (   0.0454545   0.1818182  -0.3636364), wk =   0.0090158
        k(  171) = (   0.0454545   0.1818182  -0.3181818), wk =   0.0090158
        k(  172) = (   0.0454545   0.1818182  -0.2727273), wk =   0.0090158
        k(  173) = (   0.0454545   0.1818182  -0.2272727), wk =   0.0090158
        k(  174) = (   0.0454545   0.1818182  -0.1818182), wk =   0.0090158
        k(  175) = (   0.0454545   0.1818182  -0.1363636), wk =   0.0045079
        k(  176) = (   0.0454545   0.2272727   0.2727273), wk =   0.0045079
        k(  177) = (   0.0454545   0.2272727   0.3181818), wk =   0.0090158
        k(  178) = (   0.0454545   0.2272727   0.3636364), wk =   0.0090158
        k(  179) = (   0.0454545   0.2272727   0.4090909), wk =   0.0090158
        k(  180) = (   0.0454545   0.2272727   0.4545455), wk =   0.0090158
        k(  181) = (   0.0454545   0.2272727  -0.5000000), wk =   0.0090158
        k(  182) = (   0.0454545   0.2272727  -0.4545455), wk =   0.0090158
        k(  183) = (   0.0454545   0.2272727  -0.4090909), wk =   0.0090158
        k(  184) = (   0.0454545   0.2272727  -0.3636364), wk =   0.0090158
        k(  185) = (   0.0454545   0.2272727  -0.3181818), wk =   0.0090158
        k(  186) = (   0.0454545   0.2272727  -0.2727273), wk =   0.0090158
        k(  187) = (   0.0454545   0.2272727  -0.2272727), wk =   0.0090158
        k(  188) = (   0.0454545   0.2272727  -0.1818182), wk =   0.0045079
        k(  189) = (   0.0454545   0.2727273   0.3181818), wk =   0.0045079
        k(  190) = (   0.0454545   0.2727273   0.3636364), wk =   0.0090158
        k(  191) = (   0.0454545   0.2727273   0.4090909), wk =   0.0090158
        k(  192) = (   0.0454545   0.2727273   0.4545455), wk =   0.0090158
        k(  193) = (   0.0454545   0.2727273  -0.5000000), wk =   0.0090158
        k(  194) = (   0.0454545   0.2727273  -0.4545455), wk =   0.0090158
        k(  195) = (   0.0454545   0.2727273  -0.4090909), wk =   0.0090158
        k(  196) = (   0.0454545   0.2727273  -0.3636364), wk =   0.0090158
        k(  197) = (   0.0454545   0.2727273  -0.3181818), wk =   0.0090158
        k(  198) = (   0.0454545   0.2727273  -0.2727273), wk =   0.0090158
        k(  199) = (   0.0454545   0.2727273  -0.2272727), wk =   0.0045079
        k(  200) = (   0.0454545   0.3181818   0.3636364), wk =   0.0045079
        k(  201) = (   0.0454545   0.3181818   0.4090909), wk =   0.0090158
        k(  202) = (   0.0454545   0.3181818   0.4545455), wk =   0.0090158
        k(  203) = (   0.0454545   0.3181818  -0.5000000), wk =   0.0090158
        k(  204) = (   0.0454545   0.3181818  -0.4545455), wk =   0.0090158
        k(  205) = (   0.0454545   0.3181818  -0.4090909), wk =   0.0090158
        k(  206) = (   0.0454545   0.3181818  -0.3636364), wk =   0.0090158
        k(  207) = (   0.0454545   0.3181818  -0.3181818), wk =   0.0090158
        k(  208) = (   0.0454545   0.3181818  -0.2727273), wk =   0.0045079
        k(  209) = (   0.0454545   0.3636364   0.4090909), wk =   0.0045079
        k(  210) = (   0.0454545   0.3636364   0.4545455), wk =   0.0090158
        k(  211) = (   0.0454545   0.3636364  -0.5000000), wk =   0.0090158
        k(  212) = (   0.0454545   0.3636364  -0.4545455), wk =   0.0090158
        k(  213) = (   0.0454545   0.3636364  -0.4090909), wk =   0.0090158
        k(  214) = (   0.0454545   0.3636364  -0.3636364), wk =   0.0090158
        k(  215) = (   0.0454545   0.3636364  -0.3181818), wk =   0.0045079
        k(  216) = (   0.0454545   0.4090909   0.4545455), wk =   0.0045079
        k(  217) = (   0.0454545   0.4090909  -0.5000000), wk =   0.0090158
        k(  218) = (   0.0454545   0.4090909  -0.4545455), wk =   0.0090158
        k(  219) = (   0.0454545   0.4090909  -0.4090909), wk =   0.0090158
        k(  220) = (   0.0454545   0.4090909  -0.3636364), wk =   0.0045079
        k(  221) = (   0.0454545   0.4545455  -0.5000000), wk =   0.0045079
        k(  222) = (   0.0454545   0.4545455  -0.4545455), wk =   0.0090158
        k(  223) = (   0.0454545   0.4545455  -0.4090909), wk =   0.0045079
        k(  224) = (   0.0454545  -0.5000000  -0.4545455), wk =   0.0022539
        k(  225) = (   0.0909091   0.1818182   0.2727273), wk =   0.0045079
        k(  226) = (   0.0909091   0.1818182   0.3181818), wk =   0.0090158
        k(  227) = (   0.0909091   0.1818182   0.3636364), wk =   0.0090158
        k(  228) = (   0.0909091   0.1818182   0.4090909), wk =   0.0090158
        k(  229) = (   0.0909091   0.1818182   0.4545455), wk =   0.0090158
        k(  230) = (   0.0909091   0.1818182  -0.5000000), wk =   0.0090158
        k(  231) = (   0.0909091   0.1818182  -0.4545455), wk =   0.0090158
        k(  232) = (   0.0909091   0.1818182  -0.4090909), wk =   0.0045079
        k(  233) = (   0.0909091   0.2272727   0.3181818), wk =   0.0045079
        k(  234) = (   0.0909091   0.2272727   0.3636364), wk =   0.0090158
        k(  235) = (   0.0909091   0.2272727   0.4090909), wk =   0.0090158
        k(  236) = (   0.0909091   0.2272727   0.4545455), wk =   0.0090158
        k(  237) = (   0.0909091   0.2272727  -0.5000000), wk =   0.0090158
        k(  238) = (   0.0909091   0.2272727  -0.4545455), wk =   0.0090158
        k(  239) = (   0.0909091   0.2272727  -0.4090909), wk =   0.0090158
        k(  240) = (   0.0909091   0.2272727  -0.3636364), wk =   0.0090158
        k(  241) = (   0.0909091   0.2272727  -0.3181818), wk =   0.0090158
        k(  242) = (   0.0909091   0.2272727  -0.2727273), wk =   0.0090158
        k(  243) = (   0.0909091   0.2272727  -0.2272727), wk =   0.0090158
        k(  244) = (   0.0909091   0.2272727  -0.1818182), wk =   0.0090158
        k(  245) = (   0.0909091   0.2272727  -0.1363636), wk =   0.0045079
        k(  246) = (   0.0909091   0.2727273   0.3636364), wk =   0.0045079
        k(  247) = (   0.0909091   0.2727273   0.4090909), wk =   0.0090158
        k(  248) = (   0.0909091   0.2727273   0.4545455), wk =   0.0090158
        k(  249) = (   0.0909091   0.2727273  -0.5000000), wk =   0.0090158
        k(  250) = (   0.0909091   0.2727273  -0.4545455), wk =   0.0090158
        k(  251) = (   0.0909091   0.2727273  -0.4090909), wk =   0.0090158
        k(  252) = (   0.0909091   0.2727273  -0.3636364), wk =   0.0090158
        k(  253) = (   0.0909091   0.2727273  -0.3181818), wk =   0.0090158
        k(  254) = (   0.0909091   0.2727273  -0.2727273), wk =   0.0090158
        k(  255) = (   0.0909091   0.2727273  -0.2272727), wk =   0.0090158
        k(  256) = (   0.0909091   0.2727273  -0.1818182), wk =   0.0045079
        k(  257) = (   0.0909091   0.3181818   0.4090909), wk =   0.0045079
        k(  258) = (   0.0909091   0.3181818   0.4545455), wk =   0.0090158
        k(  259) = (   0.0909091   0.3181818  -0.5000000), wk =   0.0090158
        k(  260) = (   0.0909091   0.3181818  -0.4545455), wk =   0.0090158
        k(  261) = (   0.0909091   0.3181818  -0.4090909), wk =   0.0090158
        k(  262) = (   0.0909091   0.3181818  -0.3636364), wk =   0.0090158
        k(  263) = (   0.0909091   0.3181818  -0.3181818), wk =   0.0090158
        k(  264) = (   0.0909091   0.3181818  -0.2727273), wk =   0.0090158
        k(  265) = (   0.0909091   0.3181818  -0.2272727), wk =   0.0045079
        k(  266) = (   0.0909091   0.3636364   0.4545455), wk =   0.0045079
        k(  267) = (   0.0909091   0.3636364  -0.5000000), wk =   0.0090158
        k(  268) = (   0.0909091   0.3636364  -0.4545455), wk =   0.0090158
        k(  269) = (   0.0909091   0.3636364  -0.4090909), wk =   0.0090158
        k(  270) = (   0.0909091   0.3636364  -0.3636364), wk =   0.0090158
        k(  271) = (   0.0909091   0.3636364  -0.3181818), wk =   0.0090158
        k(  272) = (   0.0909091   0.3636364  -0.2727273), wk =   0.0045079
        k(  273) = (   0.0909091   0.4090909  -0.5000000), wk =   0.0045079
        k(  274) = (   0.0909091   0.4090909  -0.4545455), wk =   0.0090158
        k(  275) = (   0.0909091   0.4090909  -0.4090909), wk =   0.0090158
        k(  276) = (   0.0909091   0.4090909  -0.3636364), wk =   0.0090158
        k(  277) = (   0.0909091   0.4090909  -0.3181818), wk =   0.0045079
        k(  278) = (   0.0909091   0.4545455  -0.4545455), wk =   0.0045079
        k(  279) = (   0.0909091   0.4545455  -0.4090909), wk =   0.0090158
        k(  280) = (   0.0909091   0.4545455  -0.3636364), wk =   0.0045079
        k(  281) = (   0.0909091  -0.5000000  -0.4090909), wk =   0.0022539
        k(  282) = (   0.1363636   0.2727273   0.4090909), wk =   0.0045079
        k(  283) = (   0.1363636   0.2727273   0.4545455), wk =   0.0090158
        k(  284) = (   0.1363636   0.2727273  -0.5000000), wk =   0.0090158
        k(  285) = (   0.1363636   0.2727273  -0.4545455), wk =   0.0090158
        k(  286) = (   0.1363636   0.2727273  -0.4090909), wk =   0.0090158
        k(  287) = (   0.1363636   0.2727273  -0.3636364), wk =   0.0045079
        k(  288) = (   0.1363636   0.3181818   0.4545455), wk =   0.0045079
        k(  289) = (   0.1363636   0.3181818  -0.5000000), wk =   0.0090158
        k(  290) = (   0.1363636   0.3181818  -0.4545455), wk =   0.0090158
        k(  291) = (   0.1363636   0.3181818  -0.4090909), wk =   0.0090158
        k(  292) = (   0.1363636   0.3181818  -0.3636364), wk =   0.0090158
        k(  293) = (   0.1363636   0.3181818  -0.3181818), wk =   0.0090158
        k(  294) = (   0.1363636   0.3181818  -0.2727273), wk =   0.0090158
        k(  295) = (   0.1363636   0.3181818  -0.2272727), wk =   0.0090158
        k(  296) = (   0.1363636   0.3181818  -0.1818182), wk =   0.0045079
        k(  297) = (   0.1363636   0.3636364  -0.5000000), wk =   0.0045079
        k(  298) = (   0.1363636   0.3636364  -0.4545455), wk =   0.0090158
        k(  299) = (   0.1363636   0.3636364  -0.4090909), wk =   0.0090158
        k(  300) = (   0.1363636   0.3636364  -0.3636364), wk =   0.0090158
        k(  301) = (   0.1363636   0.3636364  -0.3181818), wk =   0.0090158
        k(  302) = (   0.1363636   0.3636364  -0.2727273), wk =   0.0090158
        k(  303) = (   0.1363636   0.3636364  -0.2272727), wk =   0.0045079
        k(  304) = (   0.1363636   0.4090909  -0.4545455), wk =   0.0045079
        k(  305) = (   0.1363636   0.4090909  -0.4090909), wk =   0.0090158
        k(  306) = (   0.1363636   0.4090909  -0.3636364), wk =   0.0090158
        k(  307) = (   0.1363636   0.4090909  -0.3181818), wk =   0.0090158
        k(  308) = (   0.1363636   0.4090909  -0.2727273), wk =   0.0045079
        k(  309) = (   0.1363636   0.4545455  -0.4090909), wk =   0.0045079
        k(  310) = (   0.1363636   0.4545455  -0.3636364), wk =   0.0090158
        k(  311) = (   0.1363636   0.4545455  -0.3181818), wk =   0.0045079
        k(  312) = (   0.1363636  -0.5000000  -0.3636364), wk =   0.0022539
        k(  313) = (   0.1818182   0.3636364  -0.4545455), wk =   0.0045079
        k(  314) = (   0.1818182   0.3636364  -0.4090909), wk =   0.0090158
        k(  315) = (   0.1818182   0.3636364  -0.3636364), wk =   0.0090158
        k(  316) = (   0.1818182   0.3636364  -0.3181818), wk =   0.0045079
        k(  317) = (   0.1818182   0.4090909  -0.4090909), wk =   0.0045079
        k(  318) = (   0.1818182   0.4090909  -0.3636364), wk =   0.0090158
        k(  319) = (   0.1818182   0.4090909  -0.3181818), wk =   0.0090158
        k(  320) = (   0.1818182   0.4090909  -0.2727273), wk =   0.0090158
        k(  321) = (   0.1818182   0.4090909  -0.2272727), wk =   0.0045079
        k(  322) = (   0.1818182   0.4545455  -0.3636364), wk =   0.0045079
        k(  323) = (   0.1818182   0.4545455  -0.3181818), wk =   0.0090158
        k(  324) = (   0.1818182   0.4545455  -0.2727273), wk =   0.0045079
        k(  325) = (   0.1818182  -0.5000000  -0.3181818), wk =   0.0022539
        k(  326) = (   0.2272727   0.4545455  -0.3181818), wk =   0.0045079
        k(  327) = (   0.2272727   0.4545455  -0.2727273), wk =   0.0045079
        k(  328) = (   0.2272727  -0.5000000  -0.2727273), wk =   0.0022539

     Dense  grid:    43895 G-vectors     FFT dimensions: (  50,  50,  50)

     Smooth grid:    15593 G-vectors     FFT dimensions: (  36,  36,  36)

     Dynamical RAM for                 wfc:       0.24 MB

     Dynamical RAM for     wfc (w. buffer):       0.24 MB

     Dynamical RAM for           str. fact:       0.67 MB

     Dynamical RAM for           local pot:       0.00 MB

     Dynamical RAM for          nlocal pot:       0.53 MB

     Dynamical RAM for                qrad:       1.90 MB

     Dynamical RAM for          rho,v,vnew:       4.87 MB

     Dynamical RAM for           G-vectors:       2.63 MB

     Dynamical RAM for          h,s,v(r/c):       0.01 MB

     Dynamical RAM for          <psi|beta>:       0.00 MB

     Dynamical RAM for                 psi:       0.47 MB

     Dynamical RAM for                hpsi:       0.47 MB

     Dynamical RAM for                spsi:       0.47 MB

     Dynamical RAM for      wfcinit/wfcrot:       0.53 MB

     Dynamical RAM for           addusdens:     125.25 MB

     Estimated static dynamical RAM per process >      16.95 MB

     Estimated max dynamical RAM per process >     142.20 MB

     The potential is recalculated from file :
     /home/elena/AEP_DFT/DFT/tmp/bands/Pb.save/charge-density

     Starting wfcs are    9 randomized atomic wfcs

     Band Structure Calculation
     Davidson diagonalization with overlap

     Computing kpt #:     1  of   328
     total cpu time spent up to now is        3.6 secs

     Computing kpt #:     2  of   328
     total cpu time spent up to now is        3.9 secs

     Computing kpt #:     3  of   328
     total cpu time spent up to now is        4.1 secs

     Computing kpt #:     4  of   328
     total cpu time spent up to now is        4.2 secs

     Computing kpt #:     5  of   328
     total cpu time spent up to now is        4.4 secs

     Computing kpt #:     6  of   328
     total cpu time spent up to now is        4.6 secs

     Computing kpt #:     7  of   328
     total cpu time spent up to now is        4.8 secs

     Computing kpt #:     8  of   328
     total cpu time spent up to now is        5.0 secs

     Computing kpt #:     9  of   328
     total cpu time spent up to now is        5.2 secs

     Computing kpt #:    10  of   328
     total cpu time spent up to now is        5.3 secs

     Computing kpt #:    11  of   328
     total cpu time spent up to now is        5.5 secs

     Computing kpt #:    12  of   328
     total cpu time spent up to now is        5.7 secs

     Computing kpt #:    13  of   328
     total cpu time spent up to now is        6.0 secs

     Computing kpt #:    14  of   328
     total cpu time spent up to now is        6.2 secs

     Computing kpt #:    15  of   328
     total cpu time spent up to now is        6.4 secs

     Computing kpt #:    16  of   328
     total cpu time spent up to now is        6.6 secs

     Computing kpt #:    17  of   328
     total cpu time spent up to now is        6.8 secs

     Computing kpt #:    18  of   328
     total cpu time spent up to now is        7.0 secs

     Computing kpt #:    19  of   328
     total cpu time spent up to now is        7.2 secs

     Computing kpt #:    20  of   328
     total cpu time spent up to now is        7.4 secs

     Computing kpt #:    21  of   328
     total cpu time spent up to now is        7.6 secs

     Computing kpt #:    22  of   328
     total cpu time spent up to now is        7.9 secs

     Computing kpt #:    23  of   328
     total cpu time spent up to now is        8.1 secs

     Computing kpt #:    24  of   328
     total cpu time spent up to now is        8.3 secs

     Computing kpt #:    25  of   328
     total cpu time spent up to now is        8.5 secs

     Computing kpt #:    26  of   328
     total cpu time spent up to now is        8.6 secs

     Computing kpt #:    27  of   328
     total cpu time spent up to now is        8.8 secs

     Computing kpt #:    28  of   328
     total cpu time spent up to now is        9.0 secs

     Computing kpt #:    29  of   328
     total cpu time spent up to now is        9.2 secs

     Computing kpt #:    30  of   328
     total cpu time spent up to now is        9.4 secs

     Computing kpt #:    31  of   328
     total cpu time spent up to now is        9.6 secs

     Computing kpt #:    32  of   328
     total cpu time spent up to now is        9.8 secs

     Computing kpt #:    33  of   328
     total cpu time spent up to now is       10.1 secs

     Computing kpt #:    34  of   328
     total cpu time spent up to now is       10.3 secs

     Computing kpt #:    35  of   328
     total cpu time spent up to now is       10.6 secs

     Computing kpt #:    36  of   328
     total cpu time spent up to now is       10.8 secs

     Computing kpt #:    37  of   328
     total cpu time spent up to now is       11.0 secs

     Computing kpt #:    38  of   328
     total cpu time spent up to now is       11.2 secs

     Computing kpt #:    39  of   328
     total cpu time spent up to now is       11.3 secs

     Computing kpt #:    40  of   328
     total cpu time spent up to now is       11.5 secs

     Computing kpt #:    41  of   328
     total cpu time spent up to now is       11.8 secs

     Computing kpt #:    42  of   328
     total cpu time spent up to now is       12.0 secs

     Computing kpt #:    43  of   328
     total cpu time spent up to now is       12.2 secs

[...]

          k =-0.1818 0.6364-0.0000 (  1944 PWs)   bands (ev):

    -5.3375  -5.2292  -5.0590  -4.9960  -4.9542   2.7041  11.8417  14.1184

     occupation numbers 
     1.0000   1.0000   1.0000   1.0000   1.0000   1.0000   0.7430   0.0000

          k =-0.2273 0.6818-0.0455 (  1944 PWs)   bands (ev):

    -5.3292  -5.2342  -5.0636  -4.9810  -4.9432   3.1898  11.0967  13.5227

     occupation numbers 
     1.0000   1.0000   1.0000   1.0000   1.0000   1.0000   1.0159   0.0000

          k = 0.7273-0.2727 0.9091 (  1940 PWs)   bands (ev):

    -5.3166  -5.2301  -5.0699  -4.9834  -4.9307   3.7049  10.3334  12.9768

     occupation numbers 
     1.0000   1.0000   1.0000   1.0000   1.0000   1.0000   1.0000  -0.0079

          k = 0.6818-0.2273 0.8636 (  1935 PWs)   bands (ev):

    -5.3038  -5.2150  -5.0761  -4.9983  -4.9226   4.1988   9.6505  12.4771

     occupation numbers 
     1.0000   1.0000   1.0000   1.0000   1.0000   1.0000   1.0000  -0.0317

          k = 0.6364-0.1818 0.8182 (  1934 PWs)   bands (ev):

    -5.2922  -5.1917  -5.0803  -5.0209  -4.9229   4.5769   9.1745  12.0445

     occupation numbers 
     1.0000   1.0000   1.0000   1.0000   1.0000   1.0000   1.0000   0.3355

          k = 0.5909-0.1364 0.7727 (  1936 PWs)   bands (ev):

    -5.2805  -5.1689  -5.0806  -5.0455  -4.9321   4.7070   9.0517  11.7024

     occupation numbers 
     1.0000   1.0000   1.0000   1.0000   1.0000   1.0000   1.0000   0.7628

          k = 0.5455-0.0909 0.7273 (  1935 PWs)   bands (ev):

    -5.2676  -5.1591  -5.0854  -5.0524  -4.9496   4.5296   9.3344  11.4802

     occupation numbers 
     1.0000   1.0000   1.0000   1.0000   1.0000   1.0000   1.0000   0.9264

          k = 0.5000-0.0455 0.6818 (  1933 PWs)   bands (ev):

    -5.2534  -5.1697  -5.0989  -5.0318  -4.9735   4.1345   9.8761  11.4468

     occupation numbers 
     1.0000   1.0000   1.0000   1.0000   1.0000   1.0000   1.0000   0.9585

          k = 0.4545 0.0000 0.6364 (  1930 PWs)   bands (ev):

    -5.2386  -5.1940  -5.1066  -5.0064  -5.0005   3.6465  10.3712  11.7883

     occupation numbers 
     1.0000   1.0000   1.0000   1.0000   1.0000   1.0000   1.0000   0.5376

          k =-0.1818 0.7273 0.0000 (  1943 PWs)   bands (ev):

    -5.3573  -5.2582  -5.0253  -4.9519  -4.9393   3.4613  10.8745  13.6738

     occupation numbers 
     1.0000   1.0000   1.0000   1.0000   1.0000   1.0000   1.0107   0.0000

          k = 0.7727-0.2273 0.9545 (  1946 PWs)   bands (ev):

    -5.3456  -5.2584  -5.0316  -4.9513  -4.9269   3.9473  10.2945  12.9983

     occupation numbers 
     1.0000   1.0000   1.0000   1.0000   1.0000   1.0000   1.0000  -0.0053

          k = 0.7273-0.1818 0.9091 (  1938 PWs)   bands (ev):

    -5.3299  -5.2471  -5.0400  -4.9684  -4.9152   4.4180   9.7947  12.2601

     occupation numbers 
     1.0000   1.0000   1.0000   1.0000   1.0000   1.0000   1.0000   0.0377

          k = 0.6818-0.1364 0.8636 (  1932 PWs)   bands (ev):

    -5.3145  -5.2224  -5.0505  -4.9930  -4.9132   4.7929   9.4673  11.5873

     occupation numbers 
     1.0000   1.0000   1.0000   1.0000   1.0000   1.0000   1.0000   0.9130

          k = 0.6364-0.0909 0.8182 (  1934 PWs)   bands (ev):

    -5.3002  -5.1874  -5.0663  -5.0188  -4.9208   4.9630   9.4252  11.0273

     occupation numbers 
     1.0000   1.0000   1.0000   1.0000   1.0000   1.0000   1.0000   1.0331

          k = 0.5909-0.0455 0.7727 (  1932 PWs)   bands (ev):

    -5.2854  -5.1487  -5.0936  -5.0354  -4.9363   4.8669   9.7060  10.6268

     occupation numbers 
     1.0000   1.0000   1.0000   1.0000   1.0000   1.0000   1.0000   1.0126

          k = 0.5455 0.0000 0.7273 (  1928 PWs)   bands (ev):

    -5.2697  -5.1321  -5.1133  -5.0395  -4.9563   4.5574   9.9735  10.6813

     occupation numbers 
     1.0000   1.0000   1.0000   1.0000   1.0000   1.0000   1.0000   1.0140

          k = 0.8182-0.1818 1.0000 (  1948 PWs)   bands (ev):

    -5.3727  -5.2820  -4.9943  -4.9315  -4.9169   4.2435   9.8999  13.3491

     occupation numbers 
     1.0000   1.0000   1.0000   1.0000   1.0000   1.0000   1.0000  -0.0000

          k = 0.7727-0.1364 0.9545 (  1943 PWs)   bands (ev):

    -5.3575  -5.2766  -5.0013  -4.9466  -4.9046   4.6729   9.5138  12.5939

     occupation numbers 
     1.0000   1.0000   1.0000   1.0000   1.0000   1.0000   1.0000  -0.0390

          k = 0.7273-0.0909 0.9091 (  1932 PWs)   bands (ev):

    -5.3386  -5.2585  -5.0114  -4.9716  -4.9012   5.0088   9.3260  11.7608

     occupation numbers 
     1.0000   1.0000   1.0000   1.0000   1.0000   1.0000   1.0000   0.7318

          k = 0.6818-0.0455 0.8636 (  1929 PWs)   bands (ev):

    -5.3204  -5.2268  -5.0288  -4.9990  -4.9071   5.1638   9.4197  11.0017

     occupation numbers 
     1.0000   1.0000   1.0000   1.0000   1.0000   1.0000   1.0000   1.0268

          k = 0.6364 0.0000 0.8182 (  1929 PWs)   bands (ev):

    -5.3030  -5.1860  -5.0604  -5.0188  -4.9201   5.1017   9.7826  10.3975

     occupation numbers 
     1.0000   1.0000   1.0000   1.0000   1.0000   1.0000   1.0000   1.0000

          k = 0.8182-0.0909 1.0000 (  1950 PWs)   bands (ev):

    -5.3825  -5.2974  -4.9696  -4.9314  -4.8944   4.9336   9.0706  13.1513

     occupation numbers 
     1.0000   1.0000   1.0000   1.0000   1.0000   1.0000   1.0000  -0.0187

          k = 0.7727-0.0455 0.9545 (  1939 PWs)   bands (ev):

    -5.3637  -5.2862  -4.9763  -4.9552  -4.8908   5.1827   8.9616  12.3803

     occupation numbers 
     1.0000   1.0000   1.0000   1.0000   1.0000   1.0000   1.0000   0.0171

          k = 0.7273 0.0000 0.9091 (  1932 PWs)   bands (ev):

    -5.3416  -5.2625  -4.9904  -4.9845  -4.8956   5.2569   9.1170  11.5886

     occupation numbers 
     1.0000   1.0000   1.0000   1.0000   1.0000   1.0000   1.0000   0.8992

          k =-0.1818-1.0000 0.0000 (  1944 PWs)   bands (ev):

    -5.3858  -5.3027  -4.9580  -4.9342  -4.8867   5.2467   8.7068  13.0849

     occupation numbers 
     1.0000   1.0000   1.0000   1.0000   1.0000   1.0000   1.0000  -0.0326

          k =-0.2727 0.5455 0.0000 (  1936 PWs)   bands (ev):

    -5.2809  -5.1968  -5.1153  -5.0478  -4.9720   2.2759  12.0448  13.8717

     occupation numbers 
     1.0000   1.0000   1.0000   1.0000   1.0000   1.0000   0.4710   0.0000

          k =-0.3182 0.5909-0.0455 (  1939 PWs)   bands (ev):

    -5.2690  -5.2061  -5.1160  -5.0269  -4.9661   2.7713  11.2220  13.3478

     occupation numbers 
     1.0000   1.0000   1.0000   1.0000   1.0000   1.0000   1.0168  -0.0005

          k = 0.6364-0.3636 0.9091 (  1938 PWs)   bands (ev):

    -5.2565  -5.2126  -5.1139  -5.0187  -4.9575   3.3038  10.3055  13.0902

     occupation numbers 
     1.0000   1.0000   1.0000   1.0000   1.0000   1.0000   1.0000  -0.0114

          k = 0.5909-0.3182 0.8636 (  1938 PWs)   bands (ev):

    -5.2477  -5.2154  -5.1059  -5.0252  -4.9458   3.8280   9.4600  12.9746

     occupation numbers 
     1.0000   1.0000   1.0000   1.0000   1.0000   1.0000   1.0000  -0.0322

          k = 0.5455-0.2727 0.8182 (  1935 PWs)   bands (ev):

    -5.2439  -5.2157  -5.0922  -5.0396  -4.9363   4.2516   8.8308  12.9321

     occupation numbers 
     1.0000   1.0000   1.0000   1.0000   1.0000   1.0000   1.0000  -0.0364

          k = 0.5000-0.2273 0.7727 (  1932 PWs)   bands (ev):

    -5.2430  -5.2156  -5.0823  -5.0499  -4.9328   4.4242   8.5880  12.9229

     occupation numbers 
     1.0000   1.0000   1.0000   1.0000   1.0000   1.0000   1.0000  -0.0373

          k =-0.2727 0.6364 0.0000 (  1939 PWs)   bands (ev):

    -5.2994  -5.2167  -5.0960  -4.9981  -4.9589   2.9440  11.3283  13.3240

     occupation numbers 
     1.0000   1.0000   1.0000   1.0000   1.0000   1.0000   1.0038   0.0000

          k = 0.6818-0.3182 0.9545 (  1940 PWs)   bands (ev):

    -5.2844  -5.2201  -5.0999  -4.9864  -4.9549   3.4525  10.6456  12.8066

     occupation numbers 
     1.0000   1.0000   1.0000   1.0000   1.0000   1.0000   1.0005  -0.0145

          k = 0.6364-0.2727 0.9091 (  1938 PWs)   bands (ev):

    -5.2701  -5.2156  -5.1017  -4.9995  -4.9405   3.9640   9.9207  12.4912

     occupation numbers 
     1.0000   1.0000   1.0000   1.0000   1.0000   1.0000   1.0000  -0.0217

          k = 0.5909-0.2273 0.8636 (  1934 PWs)   bands (ev):

    -5.2605  -5.2046  -5.0978  -5.0225  -4.9296   4.4043   9.3142  12.2770

     occupation numbers 
     1.0000   1.0000   1.0000   1.0000   1.0000   1.0000   1.0000   0.0826

          k = 0.5455-0.1818 0.8182 (  1933 PWs)   bands (ev):

    -5.2535  -5.1960  -5.0864  -5.0471  -4.9269   4.6490   8.9973  12.1115

     occupation numbers 
     1.0000   1.0000   1.0000   1.0000   1.0000   1.0000   1.0000   0.2881

          k = 0.5000-0.1364 0.7727 (  1933 PWs)   bands (ev):

    -5.2465  -5.1962  -5.0868  -5.0496  -4.9331   4.5866   9.0962  11.9948

     occupation numbers 
     1.0000   1.0000   1.0000   1.0000   1.0000   1.0000   1.0000   0.4309

          k = 0.4545-0.0909 0.7273 (  1935 PWs)   bands (ev):

    -5.2387  -5.2066  -5.1030  -5.0259  -4.9476   4.2516   9.5645  11.9637

     occupation numbers 
     1.0000   1.0000   1.0000   1.0000   1.0000   1.0000   1.0000   0.4135

          k = 0.4091-0.0455 0.6818 (  1935 PWs)   bands (ev):

    -5.2331  -5.2219  -5.1125  -5.0016  -4.9686   3.7764  10.2143  12.0948

     occupation numbers 
     1.0000   1.0000   1.0000   1.0000   1.0000   1.0000   1.0000   0.1491

          k = 0.3636 0.0000 0.6364 (  1936 PWs)   bands (ev):

    -5.2500  -5.2167  -5.1154  -5.0000  -4.9768   3.2642  10.8115  12.5296

     occupation numbers 
     1.0000   1.0000   1.0000   1.0000   1.0000   1.0000   1.0016  -0.0121

          k = 0.7273-0.2727 1.0000 (  1941 PWs)   bands (ev):

    -5.3158  -5.2393  -5.0688  -4.9532  -4.9528   3.6694  10.6242  12.8858

     occupation numbers 
     1.0000   1.0000   1.0000   1.0000   1.0000   1.0000   1.0000  -0.0101

          k = 0.6818-0.2273 0.9545 (  1938 PWs)   bands (ev):

    -5.2977  -5.2361  -5.0762  -4.9715  -4.9317   4.1571  10.1242  12.3338

     occupation numbers 
     1.0000   1.0000   1.0000   1.0000   1.0000   1.0000   1.0000  -0.0038

          k = 0.6364-0.1818 0.9091 (  1929 PWs)   bands (ev):

    -5.2816  -5.2203  -5.0848  -4.9963  -4.9188   4.5907   9.6790  11.8543

     occupation numbers 
     1.0000   1.0000   1.0000   1.0000   1.0000   1.0000   1.0000   0.6342

          k = 0.5909-0.1364 0.8636 (  1936 PWs)   bands (ev):

    -5.2702  -5.1943  -5.0955  -5.0216  -4.9155   4.8690   9.4235  11.4543

     occupation numbers 
     1.0000   1.0000   1.0000   1.0000   1.0000   1.0000   1.0000   1.0022

          k = 0.5455-0.0909 0.8182 (  1931 PWs)   bands (ev):

    -5.2601  -5.1710  -5.1098  -5.0360  -4.9216   4.8900   9.4749  11.1642

     occupation numbers 
     1.0000   1.0000   1.0000   1.0000   1.0000   1.0000   1.0000   1.0346

          k = 0.5000-0.0455 0.7727 (  1932 PWs)   bands (ev):

    -5.2494  -5.1723  -5.1175  -5.0310  -4.9361   4.6501   9.7915  11.0610

     occupation numbers 
     1.0000   1.0000   1.0000   1.0000   1.0000   1.0000   1.0000   1.0417

          k = 0.4545 0.0000 0.7273 (  1930 PWs)   bands (ev):

    -5.2379  -5.1986  -5.1147  -5.0124  -4.9560   4.2460  10.0926  11.3472

     occupation numbers 
     1.0000   1.0000   1.0000   1.0000   1.0000   1.0000   1.0000   1.0221

          k = 0.7273-0.1818 1.0000 (  1942 PWs)   bands (ev):

    -5.3288  -5.2591  -5.0389  -4.9550  -4.9175   4.3995   9.9227  12.5661

     occupation numbers 
     1.0000   1.0000   1.0000   1.0000   1.0000   1.0000   1.0000  -0.0663

          k = 0.6818-0.1364 0.9545 (  1934 PWs)   bands (ev):

    -5.3075  -5.2494  -5.0498  -4.9775  -4.9055   4.8023   9.6556  11.9347

     occupation numbers 
     1.0000   1.0000   1.0000   1.0000   1.0000   1.0000   1.0000   0.5375

          k = 0.6364-0.0909 0.9091 (  1933 PWs)   bands (ev):

    -5.2895  -5.2245  -5.0669  -5.0031  -4.9018   5.0716   9.5853  11.2550

     occupation numbers 
     1.0000   1.0000   1.0000   1.0000   1.0000   1.0000   1.0000   1.0319

          k = 0.5909-0.0455 0.8636 (  1928 PWs)   bands (ev):

    -5.2754  -5.1880  -5.0948  -5.0220  -4.9071   5.1294   9.7934  10.6559

     occupation numbers 
     1.0000   1.0000   1.0000   1.0000   1.0000   1.0000   1.0000   1.0010

          k = 0.5455 0.0000 0.8182 (  1930 PWs)   bands (ev):

    -5.2624  -5.1499  -5.1315  -5.0308  -4.9199   4.9677  10.1137  10.3555

     occupation numbers 
     1.0000   1.0000   1.0000   1.0000   1.0000   1.0000   1.0000   1.0001

          k = 0.7273-0.0909 1.0000 (  1933 PWs)   bands (ev):

    -5.3370  -5.2722  -5.0099  -4.9655  -4.8946   5.0149   9.3141  12.3716

     occupation numbers 
     1.0000   1.0000   1.0000   1.0000   1.0000   1.0000   1.0000   0.0253

          k = 0.6818-0.0455 0.9545 (  1930 PWs)   bands (ev):

    -5.3127  -5.2566  -5.0267  -4.9903  -4.8908   5.2257   9.3313  11.6900

     occupation numbers 
     1.0000   1.0000   1.0000   1.0000   1.0000   1.0000   1.0000   0.8940

          k = 0.6364-0.0000 0.9091 (  1927 PWs)   bands (ev):

    -5.2921  -5.2261  -5.0577  -5.0086  -4.8955   5.2585   9.5812  10.9855

     occupation numbers 
     1.0000   1.0000   1.0000   1.0000   1.0000   1.0000   1.0000   1.0134

          k =-0.2727-1.0000 0.0000 (  1936 PWs)   bands (ev):

    -5.3398  -5.2769  -4.9888  -4.9804  -4.8867   5.2787   9.0483  12.3062

     occupation numbers 
     1.0000   1.0000   1.0000   1.0000   1.0000   1.0000   1.0000   0.1179

          k = 0.6364-0.2727 1.0000 (  1936 PWs)   bands (ev):

    -5.2616  -5.2264  -5.1046  -4.9787  -4.9547   3.9390  10.3358  12.0918

     occupation numbers 
     1.0000   1.0000   1.0000   1.0000   1.0000   1.0000   1.0000   0.1277

          k = 0.5909-0.2273 0.9545 (  1930 PWs)   bands (ev):

    -5.2429  -5.2221  -5.1093  -5.0019  -4.9346   4.4019   9.9347  11.6648

     occupation numbers 
     1.0000   1.0000   1.0000   1.0000   1.0000   1.0000   1.0000   0.8528

          k = 0.5455-0.1818 0.9091 (  1935 PWs)   bands (ev):

    -5.2413  -5.2011  -5.1127  -5.0255  -4.9209   4.7589   9.5546  11.4825

     occupation numbers 
     1.0000   1.0000   1.0000   1.0000   1.0000   1.0000   1.0000   0.9847

          k = 0.5000-0.1364 0.8636 (  1926 PWs)   bands (ev):

    -5.2418  -5.1902  -5.1138  -5.0362  -4.9161   4.8985   9.3958  11.4365

     occupation numbers 
     1.0000   1.0000   1.0000   1.0000   1.0000   1.0000   1.0000   1.0022

          k = 0.6364-0.1818 1.0000 (  1932 PWs)   bands (ev):

    -5.2711  -5.2374  -5.0865  -4.9864  -4.9183   4.5904   9.9386  11.7725

     occupation numbers 
     1.0000   1.0000   1.0000   1.0000   1.0000   1.0000   1.0000   0.7503

          k = 0.5909-0.1364 0.9545 (  1931 PWs)   bands (ev):

    -5.2508  -5.2232  -5.1022  -5.0090  -4.9062   4.9372   9.8061  11.3017

     occupation numbers 
     1.0000   1.0000   1.0000   1.0000   1.0000   1.0000   1.0000   1.0304

          k = 0.5455-0.0909 0.9091 (  1931 PWs)   bands (ev):

    -5.2447  -5.1910  -5.1256  -5.0251  -4.9020   5.1103   9.7989  10.9406

     occupation numbers 
     1.0000   1.0000   1.0000   1.0000   1.0000   1.0000   1.0000   1.0080

          k = 0.5000-0.0455 0.8636 (  1934 PWs)   bands (ev):

    -5.2398  -5.1747  -5.1417  -5.0279  -4.9068   5.0525   9.9258  10.7750

     occupation numbers 
     1.0000   1.0000   1.0000   1.0000   1.0000   1.0000   1.0000   1.0044

          k = 0.4545 0.0000 0.8182 (  1936 PWs)   bands (ev):

    -5.2343  -5.2037  -5.1238  -5.0176  -4.9192   4.7897   9.9808  11.0254

     occupation numbers 
     1.0000   1.0000   1.0000   1.0000   1.0000   1.0000   1.0000   1.0294

          k = 0.6364-0.0909 1.0000 (  1934 PWs)   bands (ev):

    -5.2773  -5.2459  -5.0671  -4.9980  -4.8948   5.1041   9.6370  11.5782

     occupation numbers 
     1.0000   1.0000   1.0000   1.0000   1.0000   1.0000   1.0000   0.9872

          k = 0.5909-0.0455 0.9545 (  1929 PWs)   bands (ev):

    -5.2552  -5.2243  -5.0954  -5.0154  -4.8908   5.2594   9.7999  11.0329

     occupation numbers 
     1.0000   1.0000   1.0000   1.0000   1.0000   1.0000   1.0000   1.0059

          k = 0.5455 0.0000 0.9091 (  1923 PWs)   bands (ev):

    -5.2461  -5.1852  -5.1321  -5.0249  -4.8953   5.2357  10.1571  10.4705

     occupation numbers 
     1.0000   1.0000   1.0000   1.0000   1.0000   1.0000   1.0000   1.0000

          k =-0.3636-1.0000 0.0000 (  1930 PWs)   bands (ev):

    -5.2794  -5.2490  -5.0571  -5.0051  -4.8866   5.3091   9.5135  11.5129

     occupation numbers 
     1.0000   1.0000   1.0000   1.0000   1.0000   1.0000   1.0000   1.0063

          k = 0.5455-0.0909 1.0000 (  1929 PWs)   bands (ev):

    -5.2307  -5.2074  -5.1302  -5.0215  -4.8950   5.1825  10.0246  10.8295

     occupation numbers 
     1.0000   1.0000   1.0000   1.0000   1.0000   1.0000   1.0000   1.0000

          k = 0.5000-0.0455 0.9545 (  1930 PWs)   bands (ev):

    -5.2302  -5.1733  -5.1623  -5.0260  -4.8908   5.2723  10.2297  10.5402

     occupation numbers 
     1.0000   1.0000   1.0000   1.0000   1.0000   1.0000   1.0000   1.0000

          k =-0.4545-1.0000 0.0000 (  1926 PWs)   bands (ev):

    -5.2292  -5.2087  -5.1326  -5.0230  -4.8866   5.3277  10.0904  10.7637

     occupation numbers 
     1.0000   1.0000   1.0000   1.0000   1.0000   1.0000   1.0000   1.0000

     the Fermi energy is    11.9348 ev
     (compare with:    11.9387 eV, computed in scf)

     Writing output data file /home/elena/AEP_DFT/DFT/tmp/bands/Pb.save/

     init_run     :      0.63s CPU      0.69s WALL (       1 calls)
     electrons    :     61.15s CPU     61.44s WALL (       1 calls)

     Called by init_run:
     wfcinit      :      0.00s CPU      0.00s WALL (       1 calls)
     wfcinit:atom :      0.11s CPU      0.12s WALL (     328 calls)
     wfcinit:wfcr :      3.02s CPU      3.06s WALL (     328 calls)
     potinit      :      0.05s CPU      0.07s WALL (       1 calls)
     hinit0       :      0.43s CPU      0.44s WALL (       1 calls)

     Called by electrons:
     c_bands      :     60.72s CPU     61.01s WALL (       1 calls)
     v_of_rho     :      0.05s CPU      0.06s WALL (       1 calls)
     v_h          :      0.00s CPU      0.00s WALL (       1 calls)
     v_xc         :      0.05s CPU      0.05s WALL (       1 calls)
     newd         :      0.06s CPU      0.11s WALL (       1 calls)

     Called by c_bands:
     init_us_2    :      0.14s CPU      0.15s WALL (     328 calls)
     cegterg      :     56.88s CPU     57.08s WALL (     632 calls)

     Called by sum_band:

     Called by *egterg:
     cdiaghg      :      0.68s CPU      0.68s WALL (    9499 calls)
     cegterg:over :      3.09s CPU      3.11s WALL (    9171 calls)
     cegterg:upda :      1.77s CPU      1.77s WALL (    9171 calls)
     cegterg:last :      4.37s CPU      4.38s WALL (    5702 calls)
     h_psi        :     46.93s CPU     47.12s WALL (   10131 calls)
     s_psi        :      1.89s CPU      1.90s WALL (   10131 calls)
     g_psi        :      0.29s CPU      0.29s WALL (    9171 calls)

     Called by h_psi:
     h_psi:calbec :      2.33s CPU      2.34s WALL (   10131 calls)
     vloc_psi     :     42.50s CPU     42.68s WALL (   10131 calls)
     add_vuspsi   :      1.93s CPU      1.93s WALL (   10131 calls)

     General routines
     calbec       :      2.32s CPU      2.32s WALL (   10131 calls)
     fft          :      0.02s CPU      0.02s WALL (      13 calls)
     ffts         :      0.00s CPU      0.00s WALL (       1 calls)
     fftw         :     38.73s CPU     38.90s WALL (  102134 calls)
     interpolate  :      0.00s CPU      0.01s WALL (       1 calls)
     davcio       :      0.03s CPU      0.04s WALL (     656 calls)


     PWSCF        :   1m 4.59s CPU   1m 4.99s WALL


   This run was terminated on:  22:41:27   1Jul2021            

=------------------------------------------------------------------------------=
   JOB DONE.
=------------------------------------------------------------------------------=
