
     Program PWSCF v.6.4.1 starts on 30Jun2021 at 19:57:49 

     This program is part of the open-source Quantum ESPRESSO suite
     for quantum simulation of materials; please cite
         "P. Giannozzi et al., J. Phys.:Condens. Matter 21 395502 (2009);
         "P. Giannozzi et al., J. Phys.:Condens. Matter 29 465901 (2017);
          URL http://www.quantum-espresso.org", 
     in publications or presentations arising from this work. More details at
     http://www.quantum-espresso.org/quote

     Parallel version (MPI), running on     1 processors

     MPI processes distributed on     1 nodes
     Waiting for input...
     Reading input from standard input

     Current dimensions of program PWSCF are:
     Max number of different atomic species (ntypx) = 10
     Max number of k-points (npk) =  40000
     Max angular momentum in pseudopotentials (lmaxx) =  3
               file Pb.pbe-dn-rrkjus_psl.1.0.0.UPF: wavefunction(s)  6S 5D renormalized

     Subspace diagonalization in iterative solution of the eigenvalue problem:
     a serial algorithm will be used


     G-vector sticks info
     --------------------
     sticks:   dense  smooth     PW     G-vecs:    dense   smooth      PW
     Sum        1639     823    253                43895    15593    2685


     Title: 
     Lead                                                                       


     bravais-lattice index     =            2
     lattice parameter (alat)  =       9.2226  a.u.
     unit-cell volume          =     196.1075 (a.u.)^3
     number of atoms/cell      =            1
     number of atomic types    =            1
     number of electrons       =        14.00
     number of Kohn-Sham states=           11
     kinetic-energy cutoff     =      70.0000  Ry
     charge density cutoff     =     560.0000  Ry
     convergence threshold     =      1.0E-09
     mixing beta               =       0.7000
     number of iterations used =            8  plain     mixing
     Exchange-correlation      = PBE ( 1  4  3  4 0 0)

     celldm(1)=   9.222558  celldm(2)=   0.000000  celldm(3)=   0.000000
     celldm(4)=   0.000000  celldm(5)=   0.000000  celldm(6)=   0.000000

     crystal axes: (cart. coord. in units of alat)
               a(1) = (  -0.500000   0.000000   0.500000 )  
               a(2) = (   0.000000   0.500000   0.500000 )  
               a(3) = (  -0.500000   0.500000   0.000000 )  

     reciprocal axes: (cart. coord. in units 2 pi/alat)
               b(1) = ( -1.000000 -1.000000  1.000000 )  
               b(2) = (  1.000000  1.000000  1.000000 )  
               b(3) = ( -1.000000  1.000000 -1.000000 )  


     PseudoPot. # 1 for Pb read from file:
     /home/elena/qe-6.7/pseudo/Pb.pbe-dn-rrkjus_psl.1.0.0.UPF
     MD5 check sum: 1cf8f5e18580e6a90a35f98a53d336de
     Pseudo is Ultrasoft + core correction, Zval = 14.0
     Generated using "atomic" code by A. Dal Corso v.6.3
     Using radial grid of 1281 points,  6 beta functions with: 
                l(1) =   0
                l(2) =   0
                l(3) =   1
                l(4) =   1
                l(5) =   2
                l(6) =   2
     Q(r) pseudized with 0 coefficients 


     atomic species   valence    mass     pseudopotential
        Pb            14.00   207.20000     Pb( 1.00)

     48 Sym. Ops., with inversion, found



   Cartesian axes

     site n.     atom                  positions (alat units)
         1           Pb  tau(   1) = (   0.0000000   0.0000000   0.0000000  )

     number of k points=    47  Methfessel-Paxton smearing, width (Ry)=  0.0700
                       cart. coord. in units 2pi/alat
        k(    1) = (   0.0000000   0.0000000   0.0000000), wk =   0.0020000
        k(    2) = (  -0.1000000   0.1000000  -0.1000000), wk =   0.0160000
        k(    3) = (  -0.2000000   0.2000000  -0.2000000), wk =   0.0160000
        k(    4) = (  -0.3000000   0.3000000  -0.3000000), wk =   0.0160000
        k(    5) = (  -0.4000000   0.4000000  -0.4000000), wk =   0.0160000
        k(    6) = (   0.5000000  -0.5000000   0.5000000), wk =   0.0080000
        k(    7) = (   0.0000000   0.2000000   0.0000000), wk =   0.0120000
        k(    8) = (  -0.1000000   0.3000000  -0.1000000), wk =   0.0480000
        k(    9) = (  -0.2000000   0.4000000  -0.2000000), wk =   0.0480000
        k(   10) = (  -0.3000000   0.5000000  -0.3000000), wk =   0.0480000
        k(   11) = (   0.6000000  -0.4000000   0.6000000), wk =   0.0480000
        k(   12) = (   0.5000000  -0.3000000   0.5000000), wk =   0.0480000
        k(   13) = (   0.4000000  -0.2000000   0.4000000), wk =   0.0480000
        k(   14) = (   0.3000000  -0.1000000   0.3000000), wk =   0.0480000
        k(   15) = (   0.2000000   0.0000000   0.2000000), wk =   0.0240000
        k(   16) = (   0.0000000   0.4000000   0.0000000), wk =   0.0120000
        k(   17) = (  -0.1000000   0.5000000  -0.1000000), wk =   0.0480000
        k(   18) = (  -0.2000000   0.6000000  -0.2000000), wk =   0.0480000
        k(   19) = (   0.7000000  -0.3000000   0.7000000), wk =   0.0480000
        k(   20) = (   0.6000000  -0.2000000   0.6000000), wk =   0.0480000
        k(   21) = (   0.5000000  -0.1000000   0.5000000), wk =   0.0480000
        k(   22) = (   0.4000000   0.0000000   0.4000000), wk =   0.0240000
        k(   23) = (   0.0000000   0.6000000   0.0000000), wk =   0.0120000
        k(   24) = (  -0.1000000   0.7000000  -0.1000000), wk =   0.0480000
        k(   25) = (   0.8000000  -0.2000000   0.8000000), wk =   0.0480000
        k(   26) = (   0.7000000  -0.1000000   0.7000000), wk =   0.0480000
        k(   27) = (   0.6000000  -0.0000000   0.6000000), wk =   0.0240000
        k(   28) = (   0.0000000   0.8000000   0.0000000), wk =   0.0120000
        k(   29) = (   0.9000000  -0.1000000   0.9000000), wk =   0.0480000
        k(   30) = (   0.8000000   0.0000000   0.8000000), wk =   0.0240000
        k(   31) = (   0.0000000  -1.0000000   0.0000000), wk =   0.0060000
        k(   32) = (  -0.2000000   0.4000000   0.0000000), wk =   0.0480000
        k(   33) = (  -0.3000000   0.5000000  -0.1000000), wk =   0.0960000
        k(   34) = (   0.6000000  -0.4000000   0.8000000), wk =   0.0960000
        k(   35) = (   0.5000000  -0.3000000   0.7000000), wk =   0.0480000
        k(   36) = (  -0.2000000   0.6000000   0.0000000), wk =   0.0480000
        k(   37) = (   0.7000000  -0.3000000   0.9000000), wk =   0.0960000
        k(   38) = (   0.6000000  -0.2000000   0.8000000), wk =   0.0960000
        k(   39) = (   0.5000000  -0.1000000   0.7000000), wk =   0.0960000
        k(   40) = (   0.4000000   0.0000000   0.6000000), wk =   0.0480000
        k(   41) = (   0.8000000  -0.2000000   1.0000000), wk =   0.0480000
        k(   42) = (   0.7000000  -0.1000000   0.9000000), wk =   0.0960000
        k(   43) = (   0.6000000   0.0000000   0.8000000), wk =   0.0480000
        k(   44) = (  -0.2000000  -1.0000000   0.0000000), wk =   0.0240000
        k(   45) = (   0.6000000  -0.2000000   1.0000000), wk =   0.0480000
        k(   46) = (   0.5000000  -0.1000000   0.9000000), wk =   0.0480000
        k(   47) = (  -0.4000000  -1.0000000   0.0000000), wk =   0.0240000

     Dense  grid:    43895 G-vectors     FFT dimensions: (  50,  50,  50)

     Smooth grid:    15593 G-vectors     FFT dimensions: (  36,  36,  36)

     Estimated max dynamical RAM per process >     170.82 MB

     Initial potential from superposition of free atoms

     starting charge   13.99765, renormalised to   14.00000
     Starting wfcs are    9 randomized atomic wfcs +    2 random wfcs

     total cpu time spent up to now is        2.5 secs

     Self-consistent Calculation

     iteration #  1     ecut=    70.00 Ry     beta= 0.70
     Davidson diagonalization with overlap
     ethr =  1.00E-02,  avg # of iterations =  4.0

     Threshold (ethr) on eigenvalues was too large:
     Diagonalizing with lowered threshold

     Davidson diagonalization with overlap
     ethr =  1.66E-05,  avg # of iterations =  3.6

     total cpu time spent up to now is        8.6 secs

     total energy              =    -135.43477171 Ry
     Harris-Foulkes estimate   =    -135.43617082 Ry
     estimated scf accuracy    <       0.00233206 Ry

     iteration #  2     ecut=    70.00 Ry     beta= 0.70
     Davidson diagonalization with overlap
     ethr =  1.67E-05,  avg # of iterations =  2.1

     total cpu time spent up to now is       11.5 secs

     total energy              =    -135.43524326 Ry
     Harris-Foulkes estimate   =    -135.43535974 Ry
     estimated scf accuracy    <       0.00020470 Ry

     iteration #  3     ecut=    70.00 Ry     beta= 0.70
     Davidson diagonalization with overlap
     ethr =  1.46E-06,  avg # of iterations =  2.5

     total cpu time spent up to now is       14.3 secs

     total energy              =    -135.43528578 Ry
     Harris-Foulkes estimate   =    -135.43528684 Ry
     estimated scf accuracy    <       0.00000967 Ry

     iteration #  4     ecut=    70.00 Ry     beta= 0.70
     Davidson diagonalization with overlap
     ethr =  6.91E-08,  avg # of iterations =  1.9

     total cpu time spent up to now is       16.9 secs

     total energy              =    -135.43528695 Ry
     Harris-Foulkes estimate   =    -135.43528688 Ry
     estimated scf accuracy    <       0.00000010 Ry

     iteration #  5     ecut=    70.00 Ry     beta= 0.70
     Davidson diagonalization with overlap
     ethr =  6.84E-10,  avg # of iterations =  2.2

     total cpu time spent up to now is       19.8 secs

     total energy              =    -135.43528697 Ry
     Harris-Foulkes estimate   =    -135.43528698 Ry
     estimated scf accuracy    <       0.00000001 Ry

     iteration #  6     ecut=    70.00 Ry     beta= 0.70
     Davidson diagonalization with overlap
     ethr =  9.08E-11,  avg # of iterations =  2.1

     total cpu time spent up to now is       22.7 secs

     End of self-consistent calculation

          k = 0.0000 0.0000 0.0000 (  1917 PWs)   bands (ev):

    -5.2306  -5.2306  -5.2306  -5.0715  -5.0715  -0.1808  19.6445  19.6445
    19.6445  21.9776  23.7524

          k =-0.1000 0.1000-0.1000 (  1940 PWs)   bands (ev):

    -5.2316  -5.2152  -5.2152  -5.0722  -5.0722   0.0205  17.5285  19.3940
    19.3940  21.6091  24.5521

          k =-0.2000 0.2000-0.2000 (  1943 PWs)   bands (ev):

    -5.2375  -5.1918  -5.1918  -5.0559  -5.0559   0.6258  14.2708  18.8422
    18.8422  21.2661  24.4746

          k =-0.3000 0.3000-0.3000 (  1934 PWs)   bands (ev):

    -5.2503  -5.1960  -5.1960  -5.0011  -5.0011   1.6195  11.2237  18.2745
    18.2745  21.1170  23.1785

          k =-0.4000 0.4000-0.4000 (  1937 PWs)   bands (ev):

    -5.2646  -5.2118  -5.2118  -4.9433  -4.9433   2.8809   8.6966  17.8661
    17.8661  21.1878  22.2233

          k = 0.5000-0.5000 0.5000 (  1946 PWs)   bands (ev):

    -5.2710  -5.2190  -5.2190  -4.9198  -4.9198   3.7018   7.4496  17.7181
    17.7181  21.3864  21.7304

          k = 0.0000 0.2000 0.0000 (  1941 PWs)   bands (ev):

    -5.2489  -5.1994  -5.1994  -5.0907  -5.0584   0.0874  18.1905  18.5778
    18.5778  21.1820  24.1174

          k =-0.1000 0.3000-0.1000 (  1945 PWs)   bands (ev):

    -5.2586  -5.1722  -5.1681  -5.1011  -5.0381   0.5579  15.3817  17.7873
    18.3588  21.3291  22.7875

          k =-0.2000 0.4000-0.2000 (  1944 PWs)   bands (ev):

    -5.2597  -5.1806  -5.1621  -5.0640  -4.9888   1.4242  12.3066  17.2246
    17.6691  20.9682  23.2295

          k =-0.3000 0.5000-0.3000 (  1935 PWs)   bands (ev):

    -5.2609  -5.2027  -5.1771  -5.0032  -4.9361   2.6149   9.6181  16.8817
    16.9866  20.4715  23.5234

          k = 0.6000-0.4000 0.6000 (  1942 PWs)   bands (ev):

    -5.2590  -5.2172  -5.1907  -4.9551  -4.9181   3.7235   7.8194  16.2391
    17.1242  20.4101  23.1379

          k = 0.5000-0.3000 0.5000 (  1941 PWs)   bands (ev):

    -5.2501  -5.2175  -5.1917  -4.9482  -4.9416   3.4265   8.2589  15.8935
    17.6400  20.7571  22.7804

          k = 0.4000-0.2000 0.4000 (  1942 PWs)   bands (ev):

    -5.2413  -5.2025  -5.1793  -5.0145  -4.9664   2.1915  10.4601  15.9099
    18.4560  21.4673  22.6356

          k = 0.3000-0.1000 0.3000 (  1940 PWs)   bands (ev):

    -5.2380  -5.1860  -5.1685  -5.0803  -5.0123   1.0932  13.2858  16.3129
    19.3376  22.1931  22.9658

          k = 0.2000 0.0000 0.2000 (  1945 PWs)   bands (ev):

    -5.2373  -5.1948  -5.1905  -5.0893  -5.0510   0.3566  16.1003  17.3470
    19.7794  22.0148  24.1662

          k = 0.0000 0.4000 0.0000 (  1956 PWs)   bands (ev):

    -5.2962  -5.1465  -5.1155  -5.1155  -5.0237   0.8928  15.7305  16.8082
    16.8082  20.0957  20.9436

          k =-0.1000 0.5000-0.1000 (  1946 PWs)   bands (ev):

    -5.3097  -5.1802  -5.0884  -5.0669  -4.9831   1.6240  13.3683  16.0587
    16.1258  19.7826  20.8991

          k =-0.2000 0.6000-0.2000 (  1936 PWs)   bands (ev):

    -5.3007  -5.1931  -5.0986  -5.0363  -4.9302   2.7008  10.7855  14.9358
    15.8343  19.3403  22.9072

          k = 0.7000-0.3000 0.7000 (  1940 PWs)   bands (ev):

    -5.2855  -5.1805  -5.1156  -5.0202  -4.9135   3.8721   8.7760  13.9408
    15.9800  19.3126  25.2145

          k = 0.6000-0.2000 0.6000 (  1941 PWs)   bands (ev):

    -5.2636  -5.1717  -5.1252  -5.0042  -4.9472   4.1197   8.4400  13.2960
    16.5643  19.6516  24.9225

          k = 0.5000-0.1000 0.5000 (  1940 PWs)   bands (ev):

    -5.2331  -5.1876  -5.1216  -5.0198  -4.9878   3.0842  10.1045  13.1269
    17.5238  20.3483  24.5096

          k = 0.4000 0.0000 0.4000 (  1947 PWs)   bands (ev):

    -5.2174  -5.2022  -5.1055  -5.1033  -4.9870   1.9414  12.1718  13.8529
    18.6541  21.4044  23.8191

          k = 0.0000 0.6000 0.0000 (  1960 PWs)   bands (ev):

    -5.3543  -5.2246  -5.0076  -5.0076  -4.9807   2.2168  12.9166  15.3047
    15.3047  18.7942  19.2932

          k =-0.1000 0.7000-0.1000 (  1945 PWs)   bands (ev):

    -5.3610  -5.2501  -5.0049  -4.9732  -4.9280   3.1587  11.2320  13.9818
    14.8883  18.5154  20.0858

          k = 0.8000-0.2000 0.8000 (  1934 PWs)   bands (ev):

    -5.3373  -5.2298  -5.0221  -4.9840  -4.9064   4.2577   9.6959  12.3335
    14.9331  18.5289  22.3551

          k = 0.7000-0.1000 0.7000 (  1930 PWs)   bands (ev):

    -5.3068  -5.1554  -5.0401  -5.0351  -4.9368   4.8004   9.2001  11.1441
    15.4435  18.8221  25.1684

          k = 0.6000-0.0000 0.6000 (  1933 PWs)   bands (ev):

    -5.2699  -5.1149  -5.0638  -5.0576  -4.9950   4.1351  10.0191  10.9899
    16.3620  19.4244  26.6876

          k = 0.0000 0.8000 0.0000 (  1944 PWs)   bands (ev):

    -5.4009  -5.2936  -4.9455  -4.9165  -4.9165   3.9452  10.0971  14.3293
    14.3293  17.7095  18.8190

          k = 0.9000-0.1000 0.9000 (  1940 PWs)   bands (ev):

    -5.3927  -5.2981  -4.9517  -4.9110  -4.8934   4.8435   9.0624  12.9976
    14.2355  17.9520  19.7066

          k = 0.8000 0.0000 0.8000 (  1930 PWs)   bands (ev):

    -5.3522  -5.2467  -4.9778  -4.9600  -4.9117   5.2150   9.0988  11.2230
    14.6226  18.2858  22.1573

          k = 0.0000-1.0000 0.0000 (  1964 PWs)   bands (ev):

    -5.4188  -5.3212  -4.9321  -4.8811  -4.8811   5.2169   8.4290  13.9924
    13.9924  17.3860  18.6632

          k =-0.2000 0.4000 0.0000 (  1951 PWs)   bands (ev):

    -5.2680  -5.1675  -5.1193  -5.1148  -5.0055   1.1597  14.0079  15.5999
    18.2442  21.6079  21.6806

          k =-0.3000 0.5000-0.1000 (  1943 PWs)   bands (ev):

    -5.2576  -5.1902  -5.1264  -5.0591  -4.9661   2.1350  11.5580  14.6503
    17.3248  21.0620  23.0706

          k = 0.6000-0.4000 0.8000 (  1935 PWs)   bands (ev):

    -5.2445  -5.2135  -5.1325  -5.0122  -4.9369   3.3455   9.2211  14.3903
    16.4220  20.7612  23.1838

          k = 0.5000-0.3000 0.7000 (  1936 PWs)   bands (ev):

    -5.2323  -5.2312  -5.1332  -4.9935  -4.9269   4.1010   8.0749  14.3630
    16.0461  20.6690  22.9933

          k =-0.2000 0.6000 0.0000 (  1950 PWs)   bands (ev):

    -5.3169  -5.2092  -5.0741  -5.0102  -4.9554   2.4636  12.0987  14.1737
    15.5695  20.0780  20.7819

          k = 0.7000-0.3000 0.9000 (  1936 PWs)   bands (ev):

    -5.2938  -5.2124  -5.0836  -4.9918  -4.9303   3.5747  10.2917  13.1013
    14.7338  20.1894  22.6696

          k = 0.6000-0.2000 0.8000 (  1940 PWs)   bands (ev):

    -5.2706  -5.1826  -5.0810  -5.0309  -4.9213   4.5156   8.9467  12.3634
    14.6247  20.3857  24.4142

          k = 0.5000-0.1000 0.7000 (  1939 PWs)   bands (ev):

    -5.2461  -5.1788  -5.0845  -5.0366  -4.9511   4.2458   9.3764  11.9494
    15.1899  20.8524  24.0746

          k = 0.4000 0.0000 0.6000 (  1936 PWs)   bands (ev):

    -5.2190  -5.2166  -5.1086  -5.0140  -4.9812   3.1592  10.8138  12.4332
    16.1984  21.4413  23.6077

          k = 0.8000-0.2000 1.0000 (  1945 PWs)   bands (ev):

    -5.3571  -5.2682  -5.0028  -4.9301  -4.9174   4.1205  10.0880  13.2540
    13.6976  19.2556  20.2464

          k = 0.7000-0.1000 0.9000 (  1932 PWs)   bands (ev):

    -5.3190  -5.2394  -5.0238  -4.9761  -4.8981   4.9841   9.4294  11.5763
    13.5939  19.7736  22.3168

          k = 0.6000 0.0000 0.8000 (  1937 PWs)   bands (ev):

    -5.2827  -5.1559  -5.0832  -5.0227  -4.9209   5.0013  10.0561  10.1890
    14.1764  20.2398  25.1974

          k =-0.2000-1.0000 0.0000 (  1948 PWs)   bands (ev):

    -5.3724  -5.2925  -4.9563  -4.9381  -4.8810   5.2552   8.7660  12.9363
    13.1172  18.9972  20.0669

          k = 0.6000-0.2000 1.0000 (  1928 PWs)   bands (ev):

    -5.2381  -5.2260  -5.1000  -4.9922  -4.9193   4.5581   9.9971  11.5216
    13.4741  21.9518  23.0530

          k = 0.5000-0.1000 0.9000 (  1932 PWs)   bands (ev):

    -5.2325  -5.1763  -5.1306  -5.0237  -4.8991   5.0781   9.7484  10.9904
    12.9709  22.2635  23.9745

          k =-0.4000-1.0000 0.0000 (  1930 PWs)   bands (ev):

    -5.2466  -5.2338  -5.0812  -5.0081  -4.8809   5.3210   9.7329  11.2072
    12.2312  22.0182  22.8568

     the Fermi energy is    11.9127 ev

!    total energy              =    -135.43528698 Ry
     Harris-Foulkes estimate   =    -135.43528698 Ry
     estimated scf accuracy    <          6.4E-10 Ry

     The total energy is the sum of the following terms:

     one-electron contribution =     -31.47521048 Ry
     hartree contribution      =      26.10336714 Ry
     xc contribution           =     -32.62503851 Ry
     ewald contribution        =     -97.43857717 Ry
     smearing contrib. (-TS)   =       0.00017204 Ry

     convergence has been achieved in   6 iterations

     Writing output data file Pb.save/

     init_run     :      1.72s CPU      1.78s WALL (       1 calls)
     electrons    :     19.65s CPU     20.20s WALL (       1 calls)

     Called by init_run:
     wfcinit      :      0.75s CPU      0.78s WALL (       1 calls)
     potinit      :      0.08s CPU      0.08s WALL (       1 calls)
     hinit0       :      0.76s CPU      0.77s WALL (       1 calls)

     Called by electrons:
     c_bands      :     15.56s CPU     15.62s WALL (       7 calls)
     sum_band     :      3.15s CPU      3.42s WALL (       7 calls)
     v_of_rho     :      0.41s CPU      0.42s WALL (       7 calls)
     newd         :      0.61s CPU      0.86s WALL (       7 calls)
     mix_rho      :      0.04s CPU      0.04s WALL (       7 calls)

     Called by c_bands:
     init_us_2    :      0.34s CPU      0.35s WALL (     705 calls)
     cegterg      :     14.75s CPU     14.81s WALL (     329 calls)

     Called by sum_band:
     sum_band:bec :      0.00s CPU      0.00s WALL (     329 calls)
     addusdens    :      0.69s CPU      0.94s WALL (       7 calls)

     Called by *egterg:
     h_psi        :     11.89s CPU     11.95s WALL (    1243 calls)
     s_psi        :      0.60s CPU      0.60s WALL (    1243 calls)
     g_psi        :      0.08s CPU      0.08s WALL (     867 calls)
     cdiaghg      :      0.25s CPU      0.26s WALL (    1149 calls)

     Called by h_psi:
     h_psi:pot    :     11.85s CPU     11.92s WALL (    1243 calls)
     h_psi:calbec :      0.64s CPU      0.64s WALL (    1243 calls)
     vloc_psi     :     10.60s CPU     10.65s WALL (    1243 calls)
     add_vuspsi   :      0.61s CPU      0.61s WALL (    1243 calls)

     General routines
     calbec       :      0.85s CPU      0.86s WALL (    1572 calls)
     fft          :      0.19s CPU      0.19s WALL (      90 calls)
     ffts         :      0.02s CPU      0.02s WALL (      14 calls)
     fftw         :     11.04s CPU     11.10s WALL (   23423 calls)
     interpolate  :      0.03s CPU      0.03s WALL (       7 calls)

     Parallel routines

     PWSCF        :     22.15s CPU     22.78s WALL


   This run was terminated on:  19:58:11  30Jun2021            

=------------------------------------------------------------------------------=
   JOB DONE.
=------------------------------------------------------------------------------=
