
     Program PWSCF v.6.4.1 starts on 30Jun2021 at 19:56:34 

     This program is part of the open-source Quantum ESPRESSO suite
     for quantum simulation of materials; please cite
         "P. Giannozzi et al., J. Phys.:Condens. Matter 21 395502 (2009);
         "P. Giannozzi et al., J. Phys.:Condens. Matter 29 465901 (2017);
          URL http://www.quantum-espresso.org", 
     in publications or presentations arising from this work. More details at
     http://www.quantum-espresso.org/quote

     Parallel version (MPI), running on     1 processors

     MPI processes distributed on     1 nodes
     Waiting for input...
     Reading input from standard input

     Current dimensions of program PWSCF are:
     Max number of different atomic species (ntypx) = 10
     Max number of k-points (npk) =  40000
     Max angular momentum in pseudopotentials (lmaxx) =  3
               file Pb.pbe-dn-rrkjus_psl.1.0.0.UPF: wavefunction(s)  6S 5D renormalized

     Subspace diagonalization in iterative solution of the eigenvalue problem:
     a serial algorithm will be used


     G-vector sticks info
     --------------------
     sticks:   dense  smooth     PW     G-vecs:    dense   smooth      PW
     Sum        1639     823    253                43895    15593    2685


     Title: 
     Lead                                                                       


     bravais-lattice index     =            2
     lattice parameter (alat)  =       9.2226  a.u.
     unit-cell volume          =     196.1075 (a.u.)^3
     number of atoms/cell      =            1
     number of atomic types    =            1
     number of electrons       =        14.00
     number of Kohn-Sham states=           11
     kinetic-energy cutoff     =      70.0000  Ry
     charge density cutoff     =     560.0000  Ry
     convergence threshold     =      1.0E-09
     mixing beta               =       0.7000
     number of iterations used =            8  plain     mixing
     Exchange-correlation      = PBE ( 1  4  3  4 0 0)

     celldm(1)=   9.222558  celldm(2)=   0.000000  celldm(3)=   0.000000
     celldm(4)=   0.000000  celldm(5)=   0.000000  celldm(6)=   0.000000

     crystal axes: (cart. coord. in units of alat)
               a(1) = (  -0.500000   0.000000   0.500000 )  
               a(2) = (   0.000000   0.500000   0.500000 )  
               a(3) = (  -0.500000   0.500000   0.000000 )  

     reciprocal axes: (cart. coord. in units 2 pi/alat)
               b(1) = ( -1.000000 -1.000000  1.000000 )  
               b(2) = (  1.000000  1.000000  1.000000 )  
               b(3) = ( -1.000000  1.000000 -1.000000 )  


     PseudoPot. # 1 for Pb read from file:
     /home/elena/qe-6.7/pseudo/Pb.pbe-dn-rrkjus_psl.1.0.0.UPF
     MD5 check sum: 1cf8f5e18580e6a90a35f98a53d336de
     Pseudo is Ultrasoft + core correction, Zval = 14.0
     Generated using "atomic" code by A. Dal Corso v.6.3
     Using radial grid of 1281 points,  6 beta functions with: 
                l(1) =   0
                l(2) =   0
                l(3) =   1
                l(4) =   1
                l(5) =   2
                l(6) =   2
     Q(r) pseudized with 0 coefficients 


     atomic species   valence    mass     pseudopotential
        Pb            14.00   207.20000     Pb( 1.00)

     48 Sym. Ops., with inversion, found



   Cartesian axes

     site n.     atom                  positions (alat units)
         1           Pb  tau(   1) = (   0.0000000   0.0000000   0.0000000  )

     number of k points=    47  Methfessel-Paxton smearing, width (Ry)=  0.1000
                       cart. coord. in units 2pi/alat
        k(    1) = (   0.0000000   0.0000000   0.0000000), wk =   0.0020000
        k(    2) = (  -0.1000000   0.1000000  -0.1000000), wk =   0.0160000
        k(    3) = (  -0.2000000   0.2000000  -0.2000000), wk =   0.0160000
        k(    4) = (  -0.3000000   0.3000000  -0.3000000), wk =   0.0160000
        k(    5) = (  -0.4000000   0.4000000  -0.4000000), wk =   0.0160000
        k(    6) = (   0.5000000  -0.5000000   0.5000000), wk =   0.0080000
        k(    7) = (   0.0000000   0.2000000   0.0000000), wk =   0.0120000
        k(    8) = (  -0.1000000   0.3000000  -0.1000000), wk =   0.0480000
        k(    9) = (  -0.2000000   0.4000000  -0.2000000), wk =   0.0480000
        k(   10) = (  -0.3000000   0.5000000  -0.3000000), wk =   0.0480000
        k(   11) = (   0.6000000  -0.4000000   0.6000000), wk =   0.0480000
        k(   12) = (   0.5000000  -0.3000000   0.5000000), wk =   0.0480000
        k(   13) = (   0.4000000  -0.2000000   0.4000000), wk =   0.0480000
        k(   14) = (   0.3000000  -0.1000000   0.3000000), wk =   0.0480000
        k(   15) = (   0.2000000   0.0000000   0.2000000), wk =   0.0240000
        k(   16) = (   0.0000000   0.4000000   0.0000000), wk =   0.0120000
        k(   17) = (  -0.1000000   0.5000000  -0.1000000), wk =   0.0480000
        k(   18) = (  -0.2000000   0.6000000  -0.2000000), wk =   0.0480000
        k(   19) = (   0.7000000  -0.3000000   0.7000000), wk =   0.0480000
        k(   20) = (   0.6000000  -0.2000000   0.6000000), wk =   0.0480000
        k(   21) = (   0.5000000  -0.1000000   0.5000000), wk =   0.0480000
        k(   22) = (   0.4000000   0.0000000   0.4000000), wk =   0.0240000
        k(   23) = (   0.0000000   0.6000000   0.0000000), wk =   0.0120000
        k(   24) = (  -0.1000000   0.7000000  -0.1000000), wk =   0.0480000
        k(   25) = (   0.8000000  -0.2000000   0.8000000), wk =   0.0480000
        k(   26) = (   0.7000000  -0.1000000   0.7000000), wk =   0.0480000
        k(   27) = (   0.6000000  -0.0000000   0.6000000), wk =   0.0240000
        k(   28) = (   0.0000000   0.8000000   0.0000000), wk =   0.0120000
        k(   29) = (   0.9000000  -0.1000000   0.9000000), wk =   0.0480000
        k(   30) = (   0.8000000   0.0000000   0.8000000), wk =   0.0240000
        k(   31) = (   0.0000000  -1.0000000   0.0000000), wk =   0.0060000
        k(   32) = (  -0.2000000   0.4000000   0.0000000), wk =   0.0480000
        k(   33) = (  -0.3000000   0.5000000  -0.1000000), wk =   0.0960000
        k(   34) = (   0.6000000  -0.4000000   0.8000000), wk =   0.0960000
        k(   35) = (   0.5000000  -0.3000000   0.7000000), wk =   0.0480000
        k(   36) = (  -0.2000000   0.6000000   0.0000000), wk =   0.0480000
        k(   37) = (   0.7000000  -0.3000000   0.9000000), wk =   0.0960000
        k(   38) = (   0.6000000  -0.2000000   0.8000000), wk =   0.0960000
        k(   39) = (   0.5000000  -0.1000000   0.7000000), wk =   0.0960000
        k(   40) = (   0.4000000   0.0000000   0.6000000), wk =   0.0480000
        k(   41) = (   0.8000000  -0.2000000   1.0000000), wk =   0.0480000
        k(   42) = (   0.7000000  -0.1000000   0.9000000), wk =   0.0960000
        k(   43) = (   0.6000000   0.0000000   0.8000000), wk =   0.0480000
        k(   44) = (  -0.2000000  -1.0000000   0.0000000), wk =   0.0240000
        k(   45) = (   0.6000000  -0.2000000   1.0000000), wk =   0.0480000
        k(   46) = (   0.5000000  -0.1000000   0.9000000), wk =   0.0480000
        k(   47) = (  -0.4000000  -1.0000000   0.0000000), wk =   0.0240000

     Dense  grid:    43895 G-vectors     FFT dimensions: (  50,  50,  50)

     Smooth grid:    15593 G-vectors     FFT dimensions: (  36,  36,  36)

     Estimated max dynamical RAM per process >     170.82 MB

     Initial potential from superposition of free atoms

     starting charge   13.99765, renormalised to   14.00000
     Starting wfcs are    9 randomized atomic wfcs +    2 random wfcs

     total cpu time spent up to now is        2.5 secs

     Self-consistent Calculation

     iteration #  1     ecut=    70.00 Ry     beta= 0.70
     Davidson diagonalization with overlap
     ethr =  1.00E-02,  avg # of iterations =  4.0

     Threshold (ethr) on eigenvalues was too large:
     Diagonalizing with lowered threshold

     Davidson diagonalization with overlap
     ethr =  1.67E-05,  avg # of iterations =  3.6

     total cpu time spent up to now is        8.9 secs

     total energy              =    -135.43445222 Ry
     Harris-Foulkes estimate   =    -135.43585657 Ry
     estimated scf accuracy    <       0.00234588 Ry

     iteration #  2     ecut=    70.00 Ry     beta= 0.70
     Davidson diagonalization with overlap
     ethr =  1.68E-05,  avg # of iterations =  2.1

     total cpu time spent up to now is       12.0 secs

     total energy              =    -135.43492571 Ry
     Harris-Foulkes estimate   =    -135.43504250 Ry
     estimated scf accuracy    <       0.00020596 Ry

     iteration #  3     ecut=    70.00 Ry     beta= 0.70
     Davidson diagonalization with overlap
     ethr =  1.47E-06,  avg # of iterations =  2.5

     total cpu time spent up to now is       15.0 secs

     total energy              =    -135.43496837 Ry
     Harris-Foulkes estimate   =    -135.43496943 Ry
     estimated scf accuracy    <       0.00000977 Ry

     iteration #  4     ecut=    70.00 Ry     beta= 0.70
     Davidson diagonalization with overlap
     ethr =  6.98E-08,  avg # of iterations =  1.9

     total cpu time spent up to now is       17.7 secs

     total energy              =    -135.43496955 Ry
     Harris-Foulkes estimate   =    -135.43496949 Ry
     estimated scf accuracy    <       0.00000010 Ry

     iteration #  5     ecut=    70.00 Ry     beta= 0.70
     Davidson diagonalization with overlap
     ethr =  6.96E-10,  avg # of iterations =  2.2

     total cpu time spent up to now is       20.7 secs

     total energy              =    -135.43496958 Ry
     Harris-Foulkes estimate   =    -135.43496959 Ry
     estimated scf accuracy    <       0.00000001 Ry

     iteration #  6     ecut=    70.00 Ry     beta= 0.70
     Davidson diagonalization with overlap
     ethr =  9.15E-11,  avg # of iterations =  2.1

     total cpu time spent up to now is       24.0 secs

     End of self-consistent calculation

          k = 0.0000 0.0000 0.0000 (  1917 PWs)   bands (ev):

    -5.2315  -5.2315  -5.2315  -5.0724  -5.0724  -0.1811  19.6443  19.6443
    19.6443  21.9772  23.7518

          k =-0.1000 0.1000-0.1000 (  1940 PWs)   bands (ev):

    -5.2325  -5.2161  -5.2161  -5.0731  -5.0731   0.0202  17.5283  19.3938
    19.3938  21.6087  24.5517

          k =-0.2000 0.2000-0.2000 (  1943 PWs)   bands (ev):

    -5.2383  -5.1927  -5.1927  -5.0568  -5.0568   0.6255  14.2705  18.8420
    18.8420  21.2657  24.4742

          k =-0.3000 0.3000-0.3000 (  1934 PWs)   bands (ev):

    -5.2511  -5.1969  -5.1969  -5.0019  -5.0019   1.6192  11.2235  18.2743
    18.2743  21.1165  23.1781

          k =-0.4000 0.4000-0.4000 (  1937 PWs)   bands (ev):

    -5.2654  -5.2127  -5.2127  -4.9442  -4.9442   2.8806   8.6964  17.8659
    17.8659  21.1874  22.2229

          k = 0.5000-0.5000 0.5000 (  1946 PWs)   bands (ev):

    -5.2718  -5.2199  -5.2199  -4.9206  -4.9206   3.7015   7.4494  17.7180
    17.7180  21.3861  21.7299

          k = 0.0000 0.2000 0.0000 (  1941 PWs)   bands (ev):

    -5.2497  -5.2003  -5.2003  -5.0915  -5.0593   0.0871  18.1903  18.5777
    18.5777  21.1816  24.1171

          k =-0.1000 0.3000-0.1000 (  1945 PWs)   bands (ev):

    -5.2594  -5.1731  -5.1689  -5.1020  -5.0390   0.5577  15.3814  17.7871
    18.3586  21.3287  22.7872

          k =-0.2000 0.4000-0.2000 (  1944 PWs)   bands (ev):

    -5.2605  -5.1814  -5.1630  -5.0649  -4.9896   1.4239  12.3064  17.2245
    17.6688  20.9678  23.2291

          k =-0.3000 0.5000-0.3000 (  1935 PWs)   bands (ev):

    -5.2618  -5.2036  -5.1780  -5.0040  -4.9370   2.6146   9.6178  16.8815
    16.9864  20.4712  23.5230

          k = 0.6000-0.4000 0.6000 (  1942 PWs)   bands (ev):

    -5.2598  -5.2181  -5.1915  -4.9560  -4.9189   3.7231   7.8192  16.2389
    17.1240  20.4098  23.1375

          k = 0.5000-0.3000 0.5000 (  1941 PWs)   bands (ev):

    -5.2509  -5.2184  -5.1925  -4.9490  -4.9425   3.4261   8.2587  15.8932
    17.6398  20.7568  22.7800

          k = 0.4000-0.2000 0.4000 (  1942 PWs)   bands (ev):

    -5.2421  -5.2034  -5.1801  -5.0153  -4.9673   2.1912  10.4599  15.9097
    18.4559  21.4670  22.6352

          k = 0.3000-0.1000 0.3000 (  1940 PWs)   bands (ev):

    -5.2388  -5.1868  -5.1694  -5.0812  -5.0131   1.0930  13.2856  16.3127
    19.3374  22.1927  22.9655

          k = 0.2000 0.0000 0.2000 (  1945 PWs)   bands (ev):

    -5.2381  -5.1956  -5.1913  -5.0902  -5.0519   0.3563  16.1001  17.3468
    19.7792  22.0144  24.1659

          k = 0.0000 0.4000 0.0000 (  1956 PWs)   bands (ev):

    -5.2970  -5.1474  -5.1164  -5.1164  -5.0246   0.8925  15.7302  16.8081
    16.8081  20.0954  20.9433

          k =-0.1000 0.5000-0.1000 (  1946 PWs)   bands (ev):

    -5.3106  -5.1811  -5.0893  -5.0677  -4.9839   1.6238  13.3680  16.0585
    16.1256  19.7823  20.8988

          k =-0.2000 0.6000-0.2000 (  1936 PWs)   bands (ev):

    -5.3015  -5.1940  -5.0995  -5.0372  -4.9311   2.7005  10.7853  14.9355
    15.8342  19.3400  22.9069

          k = 0.7000-0.3000 0.7000 (  1940 PWs)   bands (ev):

    -5.2864  -5.1814  -5.1165  -5.0210  -4.9144   3.8718   8.7758  13.9406
    15.9798  19.3122  25.2141

          k = 0.6000-0.2000 0.6000 (  1941 PWs)   bands (ev):

    -5.2645  -5.1725  -5.1261  -5.0051  -4.9481   4.1194   8.4398  13.2958
    16.5641  19.6513  24.9221

          k = 0.5000-0.1000 0.5000 (  1940 PWs)   bands (ev):

    -5.2339  -5.1885  -5.1225  -5.0207  -4.9887   3.0839  10.1043  13.1267
    17.5236  20.3480  24.5092

          k = 0.4000 0.0000 0.4000 (  1947 PWs)   bands (ev):

    -5.2182  -5.2031  -5.1064  -5.1042  -4.9879   1.9412  12.1716  13.8527
    18.6540  21.4041  23.8187

          k = 0.0000 0.6000 0.0000 (  1960 PWs)   bands (ev):

    -5.3552  -5.2255  -5.0084  -5.0084  -4.9816   2.2165  12.9163  15.3046
    15.3046  18.7939  19.2928

          k =-0.1000 0.7000-0.1000 (  1945 PWs)   bands (ev):

    -5.3619  -5.2510  -5.0058  -4.9741  -4.9289   3.1584  11.2317  13.9816
    14.8882  18.5151  20.0854

          k = 0.8000-0.2000 0.8000 (  1934 PWs)   bands (ev):

    -5.3382  -5.2306  -5.0229  -4.9848  -4.9072   4.2573   9.6956  12.3333
    14.9330  18.5285  22.3548

          k = 0.7000-0.1000 0.7000 (  1930 PWs)   bands (ev):

    -5.3076  -5.1562  -5.0410  -5.0359  -4.9377   4.8001   9.1999  11.1439
    15.4433  18.8218  25.1681

          k = 0.6000-0.0000 0.6000 (  1933 PWs)   bands (ev):

    -5.2707  -5.1157  -5.0647  -5.0585  -4.9959   4.1348  10.0189  10.9897
    16.3618  19.4241  26.6872

          k = 0.0000 0.8000 0.0000 (  1944 PWs)   bands (ev):

    -5.4017  -5.2945  -4.9464  -4.9174  -4.9174   3.9449  10.0969  14.3291
    14.3291  17.7092  18.8186

          k = 0.9000-0.1000 0.9000 (  1940 PWs)   bands (ev):

    -5.3935  -5.2989  -4.9526  -4.9119  -4.8943   4.8432   9.0622  12.9975
    14.2353  17.9517  19.7062

          k = 0.8000 0.0000 0.8000 (  1930 PWs)   bands (ev):

    -5.3530  -5.2475  -4.9787  -4.9609  -4.9126   5.2146   9.0986  11.2228
    14.6224  18.2854  22.1570

          k = 0.0000-1.0000 0.0000 (  1964 PWs)   bands (ev):

    -5.4196  -5.3220  -4.9330  -4.8819  -4.8819   5.2165   8.4288  13.9922
    13.9922  17.3856  18.6628

          k =-0.2000 0.4000 0.0000 (  1951 PWs)   bands (ev):

    -5.2688  -5.1684  -5.1201  -5.1156  -5.0063   1.1594  14.0076  15.5997
    18.2440  21.6076  21.6803

          k =-0.3000 0.5000-0.1000 (  1943 PWs)   bands (ev):

    -5.2585  -5.1910  -5.1273  -5.0599  -4.9670   2.1347  11.5577  14.6501
    17.3245  21.0617  23.0703

          k = 0.6000-0.4000 0.8000 (  1935 PWs)   bands (ev):

    -5.2454  -5.2143  -5.1334  -5.0131  -4.9378   3.3452   9.2209  14.3901
    16.4218  20.7609  23.1835

          k = 0.5000-0.3000 0.7000 (  1936 PWs)   bands (ev):

    -5.2332  -5.2320  -5.1341  -4.9944  -4.9278   4.1007   8.0747  14.3628
    16.0459  20.6687  22.9929

          k =-0.2000 0.6000 0.0000 (  1950 PWs)   bands (ev):

    -5.3177  -5.2101  -5.0750  -5.0110  -4.9563   2.4633  12.0985  14.1735
    15.5693  20.0777  20.7815

          k = 0.7000-0.3000 0.9000 (  1936 PWs)   bands (ev):

    -5.2946  -5.2133  -5.0845  -4.9926  -4.9312   3.5744  10.2915  13.1011
    14.7336  20.1891  22.6693

          k = 0.6000-0.2000 0.8000 (  1940 PWs)   bands (ev):

    -5.2714  -5.1835  -5.0819  -5.0318  -4.9222   4.5153   8.9465  12.3632
    14.6245  20.3854  24.4140

          k = 0.5000-0.1000 0.7000 (  1939 PWs)   bands (ev):

    -5.2469  -5.1796  -5.0853  -5.0374  -4.9520   4.2455   9.3761  11.9491
    15.1897  20.8521  24.0744

          k = 0.4000 0.0000 0.6000 (  1936 PWs)   bands (ev):

    -5.2198  -5.2175  -5.1095  -5.0148  -4.9821   3.1589  10.8136  12.4330
    16.1981  21.4410  23.6074

          k = 0.8000-0.2000 1.0000 (  1945 PWs)   bands (ev):

    -5.3579  -5.2691  -5.0036  -4.9310  -4.9182   4.1202  10.0877  13.2538
    13.6974  19.2553  20.2461

          k = 0.7000-0.1000 0.9000 (  1932 PWs)   bands (ev):

    -5.3198  -5.2403  -5.0247  -4.9769  -4.8990   4.9838   9.4292  11.5761
    13.5937  19.7733  22.3165

          k = 0.6000 0.0000 0.8000 (  1937 PWs)   bands (ev):

    -5.2836  -5.1568  -5.0841  -5.0236  -4.9218   5.0010  10.0559  10.1888
    14.1762  20.2395  25.1971

          k =-0.2000-1.0000 0.0000 (  1948 PWs)   bands (ev):

    -5.3732  -5.2934  -4.9572  -4.9390  -4.8819   5.2549   8.7658  12.9361
    13.1170  18.9969  20.0665

          k = 0.6000-0.2000 1.0000 (  1928 PWs)   bands (ev):

    -5.2389  -5.2268  -5.1008  -4.9930  -4.9202   4.5578   9.9969  11.5213
    13.4739  21.9516  23.0527

          k = 0.5000-0.1000 0.9000 (  1932 PWs)   bands (ev):

    -5.2334  -5.1771  -5.1315  -5.0246  -4.9000   5.0778   9.7482  10.9902
    12.9707  22.2632  23.9743

          k =-0.4000-1.0000 0.0000 (  1930 PWs)   bands (ev):

    -5.2474  -5.2347  -5.0820  -5.0090  -4.8818   5.3207   9.7327  11.2070
    12.2310  22.0179  22.8565

     the Fermi energy is    11.9182 ev

!    total energy              =    -135.43496958 Ry
     Harris-Foulkes estimate   =    -135.43496958 Ry
     estimated scf accuracy    <          6.6E-10 Ry

     The total energy is the sum of the following terms:

     one-electron contribution =     -31.47597158 Ry
     hartree contribution      =      26.10261515 Ry
     xc contribution           =     -32.62493926 Ry
     ewald contribution        =     -97.43857717 Ry
     smearing contrib. (-TS)   =       0.00190327 Ry

     convergence has been achieved in   6 iterations

     Writing output data file Pb.save/

     init_run     :      1.70s CPU      1.77s WALL (       1 calls)
     electrons    :     20.66s CPU     21.44s WALL (       1 calls)

     Called by init_run:
     wfcinit      :      0.76s CPU      0.77s WALL (       1 calls)
     potinit      :      0.07s CPU      0.08s WALL (       1 calls)
     hinit0       :      0.77s CPU      0.77s WALL (       1 calls)

     Called by electrons:
     c_bands      :     16.40s CPU     16.56s WALL (       7 calls)
     sum_band     :      3.27s CPU      3.62s WALL (       7 calls)
     v_of_rho     :      0.42s CPU      0.44s WALL (       7 calls)
     newd         :      0.62s CPU      0.92s WALL (       7 calls)
     mix_rho      :      0.04s CPU      0.04s WALL (       7 calls)

     Called by c_bands:
     init_us_2    :      0.36s CPU      0.37s WALL (     705 calls)
     cegterg      :     15.56s CPU     15.72s WALL (     329 calls)

     Called by sum_band:
     sum_band:bec :      0.00s CPU      0.00s WALL (     329 calls)
     addusdens    :      0.66s CPU      0.98s WALL (       7 calls)

     Called by *egterg:
     h_psi        :     12.50s CPU     12.63s WALL (    1243 calls)
     s_psi        :      0.63s CPU      0.63s WALL (    1243 calls)
     g_psi        :      0.08s CPU      0.08s WALL (     867 calls)
     cdiaghg      :      0.27s CPU      0.27s WALL (    1149 calls)

     Called by h_psi:
     h_psi:pot    :     12.46s CPU     12.59s WALL (    1243 calls)
     h_psi:calbec :      0.69s CPU      0.69s WALL (    1243 calls)
     vloc_psi     :     11.13s CPU     11.24s WALL (    1243 calls)
     add_vuspsi   :      0.64s CPU      0.64s WALL (    1243 calls)

     General routines
     calbec       :      0.92s CPU      0.93s WALL (    1572 calls)
     fft          :      0.20s CPU      0.20s WALL (      90 calls)
     ffts         :      0.02s CPU      0.02s WALL (      14 calls)
     fftw         :     11.55s CPU     11.67s WALL (   23457 calls)
     interpolate  :      0.03s CPU      0.03s WALL (       7 calls)

     Parallel routines

     PWSCF        :     23.13s CPU     24.01s WALL


   This run was terminated on:  19:56:58  30Jun2021            

=------------------------------------------------------------------------------=
   JOB DONE.
=------------------------------------------------------------------------------=
