
     Program PWSCF v.6.4.1 starts on 30Jun2021 at 20: 3:46 

     This program is part of the open-source Quantum ESPRESSO suite
     for quantum simulation of materials; please cite
         "P. Giannozzi et al., J. Phys.:Condens. Matter 21 395502 (2009);
         "P. Giannozzi et al., J. Phys.:Condens. Matter 29 465901 (2017);
          URL http://www.quantum-espresso.org", 
     in publications or presentations arising from this work. More details at
     http://www.quantum-espresso.org/quote

     Parallel version (MPI), running on     1 processors

     MPI processes distributed on     1 nodes
     Waiting for input...
     Reading input from standard input

     Current dimensions of program PWSCF are:
     Max number of different atomic species (ntypx) = 10
     Max number of k-points (npk) =  40000
     Max angular momentum in pseudopotentials (lmaxx) =  3
               file Pb.pbe-dn-rrkjus_psl.1.0.0.UPF: wavefunction(s)  6S 5D renormalized

     Subspace diagonalization in iterative solution of the eigenvalue problem:
     a serial algorithm will be used


     G-vector sticks info
     --------------------
     sticks:   dense  smooth     PW     G-vecs:    dense   smooth      PW
     Sum        1639     823    253                43895    15593    2685


     Title: 
     Lead                                                                       


     bravais-lattice index     =            2
     lattice parameter (alat)  =       9.2226  a.u.
     unit-cell volume          =     196.1075 (a.u.)^3
     number of atoms/cell      =            1
     number of atomic types    =            1
     number of electrons       =        14.00
     number of Kohn-Sham states=           11
     kinetic-energy cutoff     =      70.0000  Ry
     charge density cutoff     =     560.0000  Ry
     convergence threshold     =      1.0E-09
     mixing beta               =       0.7000
     number of iterations used =            8  plain     mixing
     Exchange-correlation      = PBE ( 1  4  3  4 0 0)

     celldm(1)=   9.222558  celldm(2)=   0.000000  celldm(3)=   0.000000
     celldm(4)=   0.000000  celldm(5)=   0.000000  celldm(6)=   0.000000

     crystal axes: (cart. coord. in units of alat)
               a(1) = (  -0.500000   0.000000   0.500000 )  
               a(2) = (   0.000000   0.500000   0.500000 )  
               a(3) = (  -0.500000   0.500000   0.000000 )  

     reciprocal axes: (cart. coord. in units 2 pi/alat)
               b(1) = ( -1.000000 -1.000000  1.000000 )  
               b(2) = (  1.000000  1.000000  1.000000 )  
               b(3) = ( -1.000000  1.000000 -1.000000 )  


     PseudoPot. # 1 for Pb read from file:
     /home/elena/qe-6.7/pseudo/Pb.pbe-dn-rrkjus_psl.1.0.0.UPF
     MD5 check sum: 1cf8f5e18580e6a90a35f98a53d336de
     Pseudo is Ultrasoft + core correction, Zval = 14.0
     Generated using "atomic" code by A. Dal Corso v.6.3
     Using radial grid of 1281 points,  6 beta functions with: 
                l(1) =   0
                l(2) =   0
                l(3) =   1
                l(4) =   1
                l(5) =   2
                l(6) =   2
     Q(r) pseudized with 0 coefficients 


     atomic species   valence    mass     pseudopotential
        Pb            14.00   207.20000     Pb( 1.00)

     48 Sym. Ops., with inversion, found



   Cartesian axes

     site n.     atom                  positions (alat units)
         1           Pb  tau(   1) = (   0.0000000   0.0000000   0.0000000  )

     number of k points=    72  Methfessel-Paxton smearing, width (Ry)=  0.0500
                       cart. coord. in units 2pi/alat
        k(    1) = (   0.0000000   0.0000000   0.0000000), wk =   0.0011574
        k(    2) = (  -0.0833333   0.0833333  -0.0833333), wk =   0.0092593
        k(    3) = (  -0.1666667   0.1666667  -0.1666667), wk =   0.0092593
        k(    4) = (  -0.2500000   0.2500000  -0.2500000), wk =   0.0092593
        k(    5) = (  -0.3333333   0.3333333  -0.3333333), wk =   0.0092593
        k(    6) = (  -0.4166667   0.4166667  -0.4166667), wk =   0.0092593
        k(    7) = (   0.5000000  -0.5000000   0.5000000), wk =   0.0046296
        k(    8) = (   0.0000000   0.1666667   0.0000000), wk =   0.0069444
        k(    9) = (  -0.0833333   0.2500000  -0.0833333), wk =   0.0277778
        k(   10) = (  -0.1666667   0.3333333  -0.1666667), wk =   0.0277778
        k(   11) = (  -0.2500000   0.4166667  -0.2500000), wk =   0.0277778
        k(   12) = (  -0.3333333   0.5000000  -0.3333333), wk =   0.0277778
        k(   13) = (   0.5833333  -0.4166667   0.5833333), wk =   0.0277778
        k(   14) = (   0.5000000  -0.3333333   0.5000000), wk =   0.0277778
        k(   15) = (   0.4166667  -0.2500000   0.4166667), wk =   0.0277778
        k(   16) = (   0.3333333  -0.1666667   0.3333333), wk =   0.0277778
        k(   17) = (   0.2500000  -0.0833333   0.2500000), wk =   0.0277778
        k(   18) = (   0.1666667  -0.0000000   0.1666667), wk =   0.0138889
        k(   19) = (   0.0000000   0.3333333   0.0000000), wk =   0.0069444
        k(   20) = (  -0.0833333   0.4166667  -0.0833333), wk =   0.0277778
        k(   21) = (  -0.1666667   0.5000000  -0.1666667), wk =   0.0277778
        k(   22) = (  -0.2500000   0.5833333  -0.2500000), wk =   0.0277778
        k(   23) = (   0.6666667  -0.3333333   0.6666667), wk =   0.0277778
        k(   24) = (   0.5833333  -0.2500000   0.5833333), wk =   0.0277778
        k(   25) = (   0.5000000  -0.1666667   0.5000000), wk =   0.0277778
        k(   26) = (   0.4166667  -0.0833333   0.4166667), wk =   0.0277778
        k(   27) = (   0.3333333   0.0000000   0.3333333), wk =   0.0138889
        k(   28) = (   0.0000000   0.5000000   0.0000000), wk =   0.0069444
        k(   29) = (  -0.0833333   0.5833333  -0.0833333), wk =   0.0277778
        k(   30) = (  -0.1666667   0.6666667  -0.1666667), wk =   0.0277778
        k(   31) = (   0.7500000  -0.2500000   0.7500000), wk =   0.0277778
        k(   32) = (   0.6666667  -0.1666667   0.6666667), wk =   0.0277778
        k(   33) = (   0.5833333  -0.0833333   0.5833333), wk =   0.0277778
        k(   34) = (   0.5000000   0.0000000   0.5000000), wk =   0.0138889
        k(   35) = (   0.0000000   0.6666667   0.0000000), wk =   0.0069444
        k(   36) = (  -0.0833333   0.7500000  -0.0833333), wk =   0.0277778
        k(   37) = (   0.8333333  -0.1666667   0.8333333), wk =   0.0277778
        k(   38) = (   0.7500000  -0.0833333   0.7500000), wk =   0.0277778
        k(   39) = (   0.6666667  -0.0000000   0.6666667), wk =   0.0138889
        k(   40) = (   0.0000000   0.8333333   0.0000000), wk =   0.0069444
        k(   41) = (   0.9166667  -0.0833333   0.9166667), wk =   0.0277778
        k(   42) = (   0.8333333   0.0000000   0.8333333), wk =   0.0138889
        k(   43) = (   0.0000000  -1.0000000   0.0000000), wk =   0.0034722
        k(   44) = (  -0.1666667   0.3333333   0.0000000), wk =   0.0277778
        k(   45) = (  -0.2500000   0.4166667  -0.0833333), wk =   0.0555556
        k(   46) = (  -0.3333333   0.5000000  -0.1666667), wk =   0.0555556
        k(   47) = (   0.5833333  -0.4166667   0.7500000), wk =   0.0555556
        k(   48) = (   0.5000000  -0.3333333   0.6666667), wk =   0.0277778
        k(   49) = (  -0.1666667   0.5000000   0.0000000), wk =   0.0277778
        k(   50) = (  -0.2500000   0.5833333  -0.0833333), wk =   0.0555556
        k(   51) = (   0.6666667  -0.3333333   0.8333333), wk =   0.0555556
        k(   52) = (   0.5833333  -0.2500000   0.7500000), wk =   0.0555556
        k(   53) = (   0.5000000  -0.1666667   0.6666667), wk =   0.0555556
        k(   54) = (   0.4166667  -0.0833333   0.5833333), wk =   0.0555556
        k(   55) = (   0.3333333   0.0000000   0.5000000), wk =   0.0277778
        k(   56) = (  -0.1666667   0.6666667  -0.0000000), wk =   0.0277778
        k(   57) = (   0.7500000  -0.2500000   0.9166667), wk =   0.0555556
        k(   58) = (   0.6666667  -0.1666667   0.8333333), wk =   0.0555556
        k(   59) = (   0.5833333  -0.0833333   0.7500000), wk =   0.0555556
        k(   60) = (   0.5000000   0.0000000   0.6666667), wk =   0.0277778
        k(   61) = (   0.8333333  -0.1666667   1.0000000), wk =   0.0277778
        k(   62) = (   0.7500000  -0.0833333   0.9166667), wk =   0.0555556
        k(   63) = (   0.6666667   0.0000000   0.8333333), wk =   0.0277778
        k(   64) = (  -0.1666667  -1.0000000  -0.0000000), wk =   0.0138889
        k(   65) = (   0.6666667  -0.3333333   1.0000000), wk =   0.0277778
        k(   66) = (   0.5833333  -0.2500000   0.9166667), wk =   0.0555556
        k(   67) = (   0.5000000  -0.1666667   0.8333333), wk =   0.0277778
        k(   68) = (   0.6666667  -0.1666667   1.0000000), wk =   0.0277778
        k(   69) = (   0.5833333  -0.0833333   0.9166667), wk =   0.0555556
        k(   70) = (   0.5000000   0.0000000   0.8333333), wk =   0.0277778
        k(   71) = (  -0.3333333  -1.0000000   0.0000000), wk =   0.0138889
        k(   72) = (  -0.5000000  -1.0000000   0.0000000), wk =   0.0069444

     Dense  grid:    43895 G-vectors     FFT dimensions: (  50,  50,  50)

     Smooth grid:    15593 G-vectors     FFT dimensions: (  36,  36,  36)

     Estimated max dynamical RAM per process >     178.96 MB

     Initial potential from superposition of free atoms

     starting charge   13.99765, renormalised to   14.00000
     Starting wfcs are    9 randomized atomic wfcs +    2 random wfcs

     total cpu time spent up to now is        3.4 secs

     Self-consistent Calculation

     iteration #  1     ecut=    70.00 Ry     beta= 0.70
     Davidson diagonalization with overlap
     ethr =  1.00E-02,  avg # of iterations =  4.2

     Threshold (ethr) on eigenvalues was too large:
     Diagonalizing with lowered threshold

     Davidson diagonalization with overlap
     ethr =  1.63E-05,  avg # of iterations =  3.5

     total cpu time spent up to now is       12.7 secs

     total energy              =    -135.43468497 Ry
     Harris-Foulkes estimate   =    -135.43606402 Ry
     estimated scf accuracy    <       0.00230016 Ry

     iteration #  2     ecut=    70.00 Ry     beta= 0.70
     Davidson diagonalization with overlap
     ethr =  1.64E-05,  avg # of iterations =  2.1

     total cpu time spent up to now is       17.2 secs

     total energy              =    -135.43515010 Ry
     Harris-Foulkes estimate   =    -135.43526496 Ry
     estimated scf accuracy    <       0.00020210 Ry

     iteration #  3     ecut=    70.00 Ry     beta= 0.70
     Davidson diagonalization with overlap
     ethr =  1.44E-06,  avg # of iterations =  2.2

     total cpu time spent up to now is       21.7 secs

     total energy              =    -135.43519208 Ry
     Harris-Foulkes estimate   =    -135.43519313 Ry
     estimated scf accuracy    <       0.00000961 Ry

     iteration #  4     ecut=    70.00 Ry     beta= 0.70
     Davidson diagonalization with overlap
     ethr =  6.87E-08,  avg # of iterations =  2.0

     total cpu time spent up to now is       25.7 secs

     total energy              =    -135.43519324 Ry
     Harris-Foulkes estimate   =    -135.43519318 Ry
     estimated scf accuracy    <       0.00000009 Ry

     iteration #  5     ecut=    70.00 Ry     beta= 0.70
     Davidson diagonalization with overlap
     ethr =  6.73E-10,  avg # of iterations =  2.1

     total cpu time spent up to now is       30.1 secs

     total energy              =    -135.43519327 Ry
     Harris-Foulkes estimate   =    -135.43519328 Ry
     estimated scf accuracy    <       0.00000001 Ry

     iteration #  6     ecut=    70.00 Ry     beta= 0.70
     Davidson diagonalization with overlap
     ethr =  8.74E-11,  avg # of iterations =  2.0

     total cpu time spent up to now is       34.6 secs

     End of self-consistent calculation

          k = 0.0000 0.0000 0.0000 (  1917 PWs)   bands (ev):

    -5.2279  -5.2279  -5.2279  -5.0688  -5.0688  -0.1798  19.6454  19.6454
    19.6454  21.9783  23.7539

          k =-0.0833 0.0833-0.0833 (  1947 PWs)   bands (ev):

    -5.2286  -5.2168  -5.2168  -5.0697  -5.0697  -0.0401  18.0467  19.4666
    19.4666  21.6803  24.3740

          k =-0.1667 0.1667-0.1667 (  1940 PWs)   bands (ev):

    -5.2321  -5.1947  -5.1947  -5.0629  -5.0629   0.3802  15.3550  19.0405
    19.0405  21.3627  24.9135

          k =-0.2500 0.2500-0.2500 (  1949 PWs)   bands (ev):

    -5.2405  -5.1880  -5.1880  -5.0293  -5.0293   1.0782  12.7012  18.5481
    18.5481  21.1655  23.7912

          k =-0.3333 0.3333-0.3333 (  1940 PWs)   bands (ev):

    -5.2527  -5.1987  -5.1987  -4.9771  -4.9771   2.0245  10.3074  18.1153
    18.1153  21.1168  22.8202

          k =-0.4167 0.4167-0.4167 (  1937 PWs)   bands (ev):

    -5.2637  -5.2112  -5.2112  -4.9336  -4.9336   3.0889   8.3606  17.8224
    17.8224  21.2213  22.1016

          k = 0.5000-0.5000 0.5000 (  1946 PWs)   bands (ev):

    -5.2683  -5.2164  -5.2164  -4.9170  -4.9170   3.7031   7.4503  17.7190
    17.7190  21.3871  21.7315

          k = 0.0000 0.1667 0.0000 (  1941 PWs)   bands (ev):

    -5.2407  -5.2061  -5.2061  -5.0822  -5.0597   0.0064  18.5535  18.8546
    18.8546  21.3727  24.5257

          k =-0.0833 0.2500-0.0833 (  1944 PWs)   bands (ev):

    -5.2483  -5.1830  -5.1806  -5.0924  -5.0473   0.3331  16.2636  18.2038
    18.7495  21.3986  23.4615

          k =-0.1667 0.3333-0.1667 (  1938 PWs)   bands (ev):

    -5.2503  -5.1755  -5.1662  -5.0774  -5.0160   0.9390  13.6227  17.6603
    18.2769  21.4477  23.0796

          k =-0.2500 0.4167-0.2500 (  1941 PWs)   bands (ev):

    -5.2533  -5.1900  -5.1727  -5.0308  -4.9681   1.8058  11.1607  17.2996
    17.6681  20.9594  23.2395

          k =-0.3333 0.5000-0.3333 (  1939 PWs)   bands (ev):

    -5.2570  -5.2071  -5.1865  -4.9789  -4.9284   2.8510   9.0591  17.0745
    17.1672  20.6440  23.0946

          k = 0.5833-0.4167 0.5833 (  1941 PWs)   bands (ev):

    -5.2576  -5.2170  -5.1965  -4.9421  -4.9158   3.7161   7.7100  16.6083
    17.2882  20.6190  22.7877

          k = 0.5000-0.3333 0.5000 (  1939 PWs)   bands (ev):

    -5.2530  -5.2158  -5.1971  -4.9369  -4.9325   3.4972   8.0279  16.3464
    17.6619  20.8658  22.5350

          k = 0.4167-0.2500 0.4167 (  1936 PWs)   bands (ev):

    -5.2455  -5.2039  -5.1881  -4.9858  -4.9517   2.4930   9.7108  16.3238
    18.2483  21.3387  22.4532

          k = 0.3333-0.1667 0.3333 (  1938 PWs)   bands (ev):

    -5.2389  -5.1886  -5.1752  -5.0453  -4.9906   1.4902  11.9514  16.5468
    18.9453  21.8378  22.7330

          k = 0.2500-0.0833 0.2500 (  1942 PWs)   bands (ev):

    -5.2355  -5.1823  -5.1775  -5.0835  -5.0311   0.7066  14.4656  17.0207
    19.5516  22.0193  23.6061

          k = 0.1667-0.0000 0.1667 (  1945 PWs)   bands (ev):

    -5.2334  -5.2027  -5.1953  -5.0821  -5.0565   0.1932  16.8472  17.9305
    19.7725  21.8616  24.3197

          k = 0.0000 0.3333 0.0000 (  1960 PWs)   bands (ev):

    -5.2755  -5.1452  -5.1452  -5.1216  -5.0344   0.5659  16.5959  17.3917
    17.3917  20.4342  21.9271

          k =-0.0833 0.4167-0.0833 (  1955 PWs)   bands (ev):

    -5.2883  -5.1534  -5.1166  -5.1001  -5.0081   1.0777  14.5125  16.7477
    16.9948  20.4397  21.1900

          k =-0.1667 0.5000-0.1667 (  1943 PWs)   bands (ev):

    -5.2865  -5.1755  -5.1156  -5.0622  -4.9621   1.8549  12.1379  16.2414
    16.3397  19.9398  22.4291

          k =-0.2500 0.5833-0.2500 (  1943 PWs)   bands (ev):

    -5.2790  -5.1859  -5.1284  -5.0291  -4.9232   2.8390  10.0013  15.4022
    16.2074  19.6445  24.1944

          k = 0.6667-0.3333 0.6667 (  1942 PWs)   bands (ev):

    -5.2694  -5.1881  -5.1417  -4.9999  -4.9126   3.8011   8.4139  14.6902
    16.3718  19.6442  24.6599

          k = 0.5833-0.2500 0.5833 (  1948 PWs)   bands (ev):

    -5.2538  -5.1908  -5.1484  -4.9785  -4.9369   3.9944   8.1447  14.2072
    16.8321  19.9118  24.2245

          k = 0.5000-0.1667 0.5000 (  1943 PWs)   bands (ev):

    -5.2320  -5.1983  -5.1452  -4.9905  -4.9703   3.1710   9.4350  14.0104
    17.5557  20.4392  23.9019

          k = 0.4167-0.0833 0.4167 (  1939 PWs)   bands (ev):

    -5.2167  -5.2022  -5.1328  -5.0583  -4.9780   2.1584  11.3983  14.1637
    18.4506  21.2287  23.6398

          k = 0.3333 0.0000 0.3333 (  1935 PWs)   bands (ev):

    -5.2286  -5.1858  -5.1350  -5.1018  -5.0000   1.3073  13.3390  14.9744
    19.2810  22.2757  23.0786

          k = 0.0000 0.5000 0.0000 (  1964 PWs)   bands (ev):

    -5.3226  -5.1818  -5.0594  -5.0594  -4.9996   1.4942  14.3582  16.0019
    16.0019  19.6542  19.7177

          k =-0.0833 0.5833-0.0833 (  1945 PWs)   bands (ev):

    -5.3345  -5.2093  -5.0412  -5.0213  -4.9612   2.1767  12.7172  15.1374
    15.5065  19.1213  20.1625

          k =-0.1667 0.6667-0.1667 (  1936 PWs)   bands (ev):

    -5.3248  -5.2156  -5.0514  -5.0058  -4.9194   3.0780  10.8739  13.9730
    15.3066  18.8768  21.7944

          k = 0.7500-0.2500 0.7500 (  1941 PWs)   bands (ev):

    -5.3072  -5.1898  -5.0661  -5.0139  -4.9076   4.0338   9.3301  12.9540
    15.4242  18.8845  23.8990

          k = 0.6667-0.1667 0.6667 (  1944 PWs)   bands (ev):

    -5.2864  -5.1464  -5.0782  -5.0343  -4.9320   4.5063   8.7139  12.2239
    15.8582  19.1238  26.1455

          k = 0.5833-0.0833 0.5833 (  1941 PWs)   bands (ev):

    -5.2598  -5.1376  -5.0845  -5.0290  -4.9854   3.9755   9.5275  11.8778
    16.5781  19.5936  25.8263

          k = 0.5000 0.0000 0.5000 (  1947 PWs)   bands (ev):

    -5.2300  -5.1748  -5.0906  -5.0457  -4.9956   3.0350  10.7950  12.3176
    17.5060  20.2987  25.1437

          k = 0.0000 0.6667 0.0000 (  1948 PWs)   bands (ev):

    -5.3695  -5.2478  -4.9703  -4.9703  -4.9645   2.7612  11.9483  14.9145
    14.9145  18.3323  19.0998

          k =-0.0833 0.7500-0.0833 (  1943 PWs)   bands (ev):

    -5.3745  -5.2673  -4.9770  -4.9450  -4.9168   3.5642  10.6961  13.8353
    14.6215  18.2493  19.6334

          k = 0.8333-0.1667 0.8333 (  1941 PWs)   bands (ev):

    -5.3538  -5.2540  -4.9911  -4.9548  -4.9003   4.4410   9.6623  12.3016
    14.6555  18.3270  21.3844

          k = 0.7500-0.0833 0.7500 (  1927 PWs)   bands (ev):

    -5.3254  -5.1976  -5.0081  -4.9972  -4.9201   4.9782   9.3325  10.9806
    15.0182  18.5469  23.6417

          k = 0.6667-0.0000 0.6667 (  1935 PWs)   bands (ev):

    -5.2937  -5.1154  -5.0612  -5.0340  -4.9600   4.7190   9.9765  10.2391
    15.6818  18.9631  26.1522

          k = 0.0000 0.8333 0.0000 (  1956 PWs)   bands (ev):

    -5.4036  -5.2993  -4.9389  -4.9032  -4.9032   4.2455   9.6794  14.2277
    14.2277  17.6096  18.7721

          k = 0.9167-0.0833 0.9167 (  1948 PWs)   bands (ev):

    -5.3975  -5.3026  -4.9424  -4.8993  -4.8877   4.9420   8.8944  13.2328
    14.1625  17.8490  19.3813

          k = 0.8333 0.0000 0.8333 (  1938 PWs)   bands (ev):

    -5.3647  -5.2688  -4.9623  -4.9349  -4.8997   5.2371   8.8973  11.7469
    14.4334  18.1558  21.2463

          k = 0.0000-1.0000 0.0000 (  1964 PWs)   bands (ev):

    -5.4161  -5.3186  -4.9295  -4.8782  -4.8782   5.2182   8.4297  13.9931
    13.9931  17.3869  18.6640

          k =-0.1667 0.3333 0.0000 (  1950 PWs)   bands (ev):

    -5.2577  -5.1661  -5.1481  -5.1067  -5.0244   0.7527  15.0348  16.4553
    18.7777  21.5308  22.3237

          k =-0.2500 0.4167-0.0833 (  1941 PWs)   bands (ev):

    -5.2550  -5.1758  -5.1338  -5.0847  -4.9886   1.4452  12.8579  15.5620
    18.2308  21.3619  22.7271

          k =-0.3333 0.5000-0.1667 (  1938 PWs)   bands (ev):

    -5.2486  -5.1963  -5.1440  -5.0336  -4.9521   2.3752  10.6062  15.1935
    17.4372  20.9190  23.2737

          k = 0.5833-0.4167 0.7500 (  1938 PWs)   bands (ev):

    -5.2428  -5.2157  -5.1526  -4.9892  -4.9288   3.4042   8.7462  15.0719
    16.7889  20.6785  22.9962

          k = 0.5000-0.3333 0.6667 (  1952 PWs)   bands (ev):

    -5.2379  -5.2265  -5.1557  -4.9702  -4.9226   3.9819   7.8876  15.0636
    16.5295  20.6027  22.8612

          k =-0.1667 0.5000 0.0000 (  1945 PWs)   bands (ev):

    -5.2993  -5.1771  -5.0936  -5.0619  -4.9797   1.6756  13.3397  15.1195
    16.7210  20.4619  20.7788

          k =-0.2500 0.5833-0.0833 (  1939 PWs)   bands (ev):

    -5.2900  -5.1939  -5.0965  -5.0267  -4.9472   2.5182  11.5078  14.2370
    15.9587  20.2298  22.1511

          k = 0.6667-0.3333 0.8333 (  1940 PWs)   bands (ev):

    -5.2741  -5.1940  -5.1007  -5.0174  -4.9234   3.5063   9.6886  13.7283
    15.3987  20.1579  23.8996

          k = 0.5833-0.2500 0.7500 (  1942 PWs)   bands (ev):

    -5.2593  -5.1894  -5.0938  -5.0246  -4.9213   4.2756   8.5314  13.2823
    15.3561  20.3001  23.9470

          k = 0.5000-0.1667 0.6667 (  1944 PWs)   bands (ev):

    -5.2408  -5.1950  -5.0946  -5.0218  -4.9435   4.0727   8.8413  12.9729
    15.7817  20.6473  23.6392

          k = 0.4167-0.0833 0.5833 (  1941 PWs)   bands (ev):

    -5.2177  -5.2123  -5.1069  -5.0231  -4.9691   3.1565  10.3144  12.9693
    16.5374  21.1600  23.4957

          k = 0.3333 0.0000 0.5000 (  1937 PWs)   bands (ev):

    -5.2382  -5.1935  -5.1104  -5.0650  -4.9737   2.2057  11.9259  13.6511
    17.4734  21.6472  22.9634

          k =-0.1667 0.6667-0.0000 (  1944 PWs)   bands (ev):

    -5.3415  -5.2335  -5.0324  -4.9718  -4.9402   2.9230  11.5901  14.0846
    14.8025  19.3563  20.1774

          k = 0.7500-0.2500 0.9167 (  1945 PWs)   bands (ev):

    -5.3226  -5.2338  -5.0432  -4.9633  -4.9178   3.8312  10.3146  12.9056
    14.3014  19.5565  21.6411

          k = 0.6667-0.1667 0.8333 (  1929 PWs)   bands (ev):

    -5.2979  -5.1961  -5.0577  -4.9984  -4.9106   4.6343   9.3429  11.8430
    14.3593  19.7337  23.7859

          k = 0.5833-0.0833 0.7500 (  1934 PWs)   bands (ev):

    -5.2736  -5.1408  -5.0786  -5.0376  -4.9337   4.7310   9.3711  11.1473
    14.8147  20.0957  25.4092

          k = 0.5000 0.0000 0.6667 (  1940 PWs)   bands (ev):

    -5.2456  -5.1566  -5.0921  -5.0186  -4.9764   4.0431  10.1175  11.2881
    15.5754  20.6361  25.0029

          k = 0.8333-0.1667 1.0000 (  1947 PWs)   bands (ev):

    -5.3723  -5.2804  -4.9749  -4.9193  -4.9036   4.3537   9.7380  13.4315
    13.6672  18.7631  19.8117

          k = 0.7500-0.0833 0.9167 (  1936 PWs)   bands (ev):

    -5.3420  -5.2610  -4.9891  -4.9544  -4.8906   5.0354   9.2272  11.9497
    13.6512  19.2375  21.3735

          k = 0.6667 0.0000 0.8333 (  1929 PWs)   bands (ev):

    -5.3074  -5.1989  -5.0287  -5.0011  -4.9065   5.1661   9.5749  10.6270
    14.0793  19.5955  23.6743

          k =-0.1667-1.0000-0.0000 (  1940 PWs)   bands (ev):

    -5.3836  -5.2982  -4.9465  -4.9183  -4.8781   5.2458   8.6645  13.2082
    13.3166  18.5748  19.6900

          k = 0.6667-0.3333 1.0000 (  1930 PWs)   bands (ev):

    -5.2638  -5.2105  -5.0990  -4.9751  -4.9600   3.3812  10.7925  12.6341
    15.0085  21.3568  22.3793

          k = 0.5833-0.2500 0.9167 (  1933 PWs)   bands (ev):

    -5.2365  -5.2067  -5.0988  -5.0030  -4.9311   4.2816   9.7163  11.9900
    14.2412  21.5680  23.5598

          k = 0.5000-0.1667 0.8333 (  1930 PWs)   bands (ev):

    -5.2352  -5.1898  -5.0850  -5.0384  -4.9158   4.7431   9.1125  11.8836
    13.9458  21.5756  23.5925

          k = 0.6667-0.1667 1.0000 (  1946 PWs)   bands (ev):

    -5.2849  -5.2378  -5.0585  -4.9688  -4.9047   4.6332   9.8581  11.9949
    13.1333  21.0739  21.9869

          k = 0.5833-0.0833 0.9167 (  1929 PWs)   bands (ev):

    -5.2512  -5.1991  -5.0938  -5.0092  -4.8912   5.1348   9.7623  11.0082
    12.8768  21.6304  23.8499

          k = 0.5000 0.0000 0.8333 (  1932 PWs)   bands (ev):

    -5.2352  -5.1600  -5.1324  -5.0190  -4.9060   4.9543  10.0571  10.6398
    13.3381  21.9598  24.7897

          k =-0.3333-1.0000 0.0000 (  1940 PWs)   bands (ev):

    -5.2927  -5.2499  -5.0248  -4.9887  -4.8782   5.3037   9.3474  11.7767
    12.4445  20.9643  21.8536

          k =-0.5000-1.0000 0.0000 (  1912 PWs)   bands (ev):

    -5.2181  -5.1625  -5.1625  -5.0172  -4.8780   5.3342  10.4182  10.4182
    12.1089  23.0939  24.4579

     the Fermi energy is    11.9147 ev

!    total energy              =    -135.43519327 Ry
     Harris-Foulkes estimate   =    -135.43519327 Ry
     estimated scf accuracy    <          6.0E-10 Ry

     The total energy is the sum of the following terms:

     one-electron contribution =     -31.47642328 Ry
     hartree contribution      =      26.10577712 Ry
     xc contribution           =     -32.62535047 Ry
     ewald contribution        =     -97.43857717 Ry
     smearing contrib. (-TS)   =      -0.00061948 Ry

     convergence has been achieved in   6 iterations

     Writing output data file Pb.save/

     init_run     :      2.21s CPU      2.26s WALL (       1 calls)
     electrons    :     30.48s CPU     31.20s WALL (       1 calls)

     Called by init_run:
     wfcinit      :      1.21s CPU      1.22s WALL (       1 calls)
     potinit      :      0.07s CPU      0.08s WALL (       1 calls)
     hinit0       :      0.81s CPU      0.81s WALL (       1 calls)

     Called by electrons:
     c_bands      :     24.78s CPU     24.89s WALL (       7 calls)
     sum_band     :      4.67s CPU      5.01s WALL (       7 calls)
     v_of_rho     :      0.43s CPU      0.45s WALL (       7 calls)
     newd         :      0.69s CPU      0.97s WALL (       7 calls)
     mix_rho      :      0.04s CPU      0.04s WALL (       7 calls)

     Called by c_bands:
     init_us_2    :      0.57s CPU      0.57s WALL (    1080 calls)
     cegterg      :     23.49s CPU     23.60s WALL (     504 calls)

     Called by sum_band:
     sum_band:bec :      0.00s CPU      0.00s WALL (     504 calls)
     addusdens    :      0.69s CPU      1.03s WALL (       7 calls)

     Called by *egterg:
     h_psi        :     18.96s CPU     19.05s WALL (    1874 calls)
     s_psi        :      0.94s CPU      0.94s WALL (    1874 calls)
     g_psi        :      0.13s CPU      0.13s WALL (    1298 calls)
     cdiaghg      :      0.40s CPU      0.40s WALL (    1730 calls)

     Called by h_psi:
     h_psi:pot    :     18.90s CPU     18.99s WALL (    1874 calls)
     h_psi:calbec :      1.04s CPU      1.05s WALL (    1874 calls)
     vloc_psi     :     16.89s CPU     16.97s WALL (    1874 calls)
     add_vuspsi   :      0.96s CPU      0.96s WALL (    1874 calls)

     General routines
     calbec       :      1.41s CPU      1.41s WALL (    2378 calls)
     fft          :      0.20s CPU      0.21s WALL (      90 calls)
     ffts         :      0.02s CPU      0.02s WALL (      14 calls)
     fftw         :     17.48s CPU     17.56s WALL (   35806 calls)
     interpolate  :      0.03s CPU      0.03s WALL (       7 calls)

     Parallel routines

     PWSCF        :     33.63s CPU     34.62s WALL


   This run was terminated on:  20: 4:20  30Jun2021            

=------------------------------------------------------------------------------=
   JOB DONE.
=------------------------------------------------------------------------------=
