
     Program PWSCF v.6.4.1 starts on 30Jun2021 at 19:59:23 

     This program is part of the open-source Quantum ESPRESSO suite
     for quantum simulation of materials; please cite
         "P. Giannozzi et al., J. Phys.:Condens. Matter 21 395502 (2009);
         "P. Giannozzi et al., J. Phys.:Condens. Matter 29 465901 (2017);
          URL http://www.quantum-espresso.org", 
     in publications or presentations arising from this work. More details at
     http://www.quantum-espresso.org/quote

     Parallel version (MPI), running on     1 processors

     MPI processes distributed on     1 nodes
     Waiting for input...
     Reading input from standard input

     Current dimensions of program PWSCF are:
     Max number of different atomic species (ntypx) = 10
     Max number of k-points (npk) =  40000
     Max angular momentum in pseudopotentials (lmaxx) =  3
               file Pb.pbe-dn-rrkjus_psl.1.0.0.UPF: wavefunction(s)  6S 5D renormalized

     Subspace diagonalization in iterative solution of the eigenvalue problem:
     a serial algorithm will be used


     G-vector sticks info
     --------------------
     sticks:   dense  smooth     PW     G-vecs:    dense   smooth      PW
     Sum        1639     823    253                43895    15593    2685


     Title: 
     Lead                                                                       


     bravais-lattice index     =            2
     lattice parameter (alat)  =       9.2226  a.u.
     unit-cell volume          =     196.1075 (a.u.)^3
     number of atoms/cell      =            1
     number of atomic types    =            1
     number of electrons       =        14.00
     number of Kohn-Sham states=           11
     kinetic-energy cutoff     =      70.0000  Ry
     charge density cutoff     =     560.0000  Ry
     convergence threshold     =      1.0E-09
     mixing beta               =       0.7000
     number of iterations used =            8  plain     mixing
     Exchange-correlation      = PBE ( 1  4  3  4 0 0)

     celldm(1)=   9.222558  celldm(2)=   0.000000  celldm(3)=   0.000000
     celldm(4)=   0.000000  celldm(5)=   0.000000  celldm(6)=   0.000000

     crystal axes: (cart. coord. in units of alat)
               a(1) = (  -0.500000   0.000000   0.500000 )  
               a(2) = (   0.000000   0.500000   0.500000 )  
               a(3) = (  -0.500000   0.500000   0.000000 )  

     reciprocal axes: (cart. coord. in units 2 pi/alat)
               b(1) = ( -1.000000 -1.000000  1.000000 )  
               b(2) = (  1.000000  1.000000  1.000000 )  
               b(3) = ( -1.000000  1.000000 -1.000000 )  


     PseudoPot. # 1 for Pb read from file:
     /home/elena/qe-6.7/pseudo/Pb.pbe-dn-rrkjus_psl.1.0.0.UPF
     MD5 check sum: 1cf8f5e18580e6a90a35f98a53d336de
     Pseudo is Ultrasoft + core correction, Zval = 14.0
     Generated using "atomic" code by A. Dal Corso v.6.3
     Using radial grid of 1281 points,  6 beta functions with: 
                l(1) =   0
                l(2) =   0
                l(3) =   1
                l(4) =   1
                l(5) =   2
                l(6) =   2
     Q(r) pseudized with 0 coefficients 


     atomic species   valence    mass     pseudopotential
        Pb            14.00   207.20000     Pb( 1.00)

     48 Sym. Ops., with inversion, found



   Cartesian axes

     site n.     atom                  positions (alat units)
         1           Pb  tau(   1) = (   0.0000000   0.0000000   0.0000000  )

     number of k points=    47  Methfessel-Paxton smearing, width (Ry)=  0.0300
                       cart. coord. in units 2pi/alat
        k(    1) = (   0.0000000   0.0000000   0.0000000), wk =   0.0020000
        k(    2) = (  -0.1000000   0.1000000  -0.1000000), wk =   0.0160000
        k(    3) = (  -0.2000000   0.2000000  -0.2000000), wk =   0.0160000
        k(    4) = (  -0.3000000   0.3000000  -0.3000000), wk =   0.0160000
        k(    5) = (  -0.4000000   0.4000000  -0.4000000), wk =   0.0160000
        k(    6) = (   0.5000000  -0.5000000   0.5000000), wk =   0.0080000
        k(    7) = (   0.0000000   0.2000000   0.0000000), wk =   0.0120000
        k(    8) = (  -0.1000000   0.3000000  -0.1000000), wk =   0.0480000
        k(    9) = (  -0.2000000   0.4000000  -0.2000000), wk =   0.0480000
        k(   10) = (  -0.3000000   0.5000000  -0.3000000), wk =   0.0480000
        k(   11) = (   0.6000000  -0.4000000   0.6000000), wk =   0.0480000
        k(   12) = (   0.5000000  -0.3000000   0.5000000), wk =   0.0480000
        k(   13) = (   0.4000000  -0.2000000   0.4000000), wk =   0.0480000
        k(   14) = (   0.3000000  -0.1000000   0.3000000), wk =   0.0480000
        k(   15) = (   0.2000000   0.0000000   0.2000000), wk =   0.0240000
        k(   16) = (   0.0000000   0.4000000   0.0000000), wk =   0.0120000
        k(   17) = (  -0.1000000   0.5000000  -0.1000000), wk =   0.0480000
        k(   18) = (  -0.2000000   0.6000000  -0.2000000), wk =   0.0480000
        k(   19) = (   0.7000000  -0.3000000   0.7000000), wk =   0.0480000
        k(   20) = (   0.6000000  -0.2000000   0.6000000), wk =   0.0480000
        k(   21) = (   0.5000000  -0.1000000   0.5000000), wk =   0.0480000
        k(   22) = (   0.4000000   0.0000000   0.4000000), wk =   0.0240000
        k(   23) = (   0.0000000   0.6000000   0.0000000), wk =   0.0120000
        k(   24) = (  -0.1000000   0.7000000  -0.1000000), wk =   0.0480000
        k(   25) = (   0.8000000  -0.2000000   0.8000000), wk =   0.0480000
        k(   26) = (   0.7000000  -0.1000000   0.7000000), wk =   0.0480000
        k(   27) = (   0.6000000  -0.0000000   0.6000000), wk =   0.0240000
        k(   28) = (   0.0000000   0.8000000   0.0000000), wk =   0.0120000
        k(   29) = (   0.9000000  -0.1000000   0.9000000), wk =   0.0480000
        k(   30) = (   0.8000000   0.0000000   0.8000000), wk =   0.0240000
        k(   31) = (   0.0000000  -1.0000000   0.0000000), wk =   0.0060000
        k(   32) = (  -0.2000000   0.4000000   0.0000000), wk =   0.0480000
        k(   33) = (  -0.3000000   0.5000000  -0.1000000), wk =   0.0960000
        k(   34) = (   0.6000000  -0.4000000   0.8000000), wk =   0.0960000
        k(   35) = (   0.5000000  -0.3000000   0.7000000), wk =   0.0480000
        k(   36) = (  -0.2000000   0.6000000   0.0000000), wk =   0.0480000
        k(   37) = (   0.7000000  -0.3000000   0.9000000), wk =   0.0960000
        k(   38) = (   0.6000000  -0.2000000   0.8000000), wk =   0.0960000
        k(   39) = (   0.5000000  -0.1000000   0.7000000), wk =   0.0960000
        k(   40) = (   0.4000000   0.0000000   0.6000000), wk =   0.0480000
        k(   41) = (   0.8000000  -0.2000000   1.0000000), wk =   0.0480000
        k(   42) = (   0.7000000  -0.1000000   0.9000000), wk =   0.0960000
        k(   43) = (   0.6000000   0.0000000   0.8000000), wk =   0.0480000
        k(   44) = (  -0.2000000  -1.0000000   0.0000000), wk =   0.0240000
        k(   45) = (   0.6000000  -0.2000000   1.0000000), wk =   0.0480000
        k(   46) = (   0.5000000  -0.1000000   0.9000000), wk =   0.0480000
        k(   47) = (  -0.4000000  -1.0000000   0.0000000), wk =   0.0240000

     Dense  grid:    43895 G-vectors     FFT dimensions: (  50,  50,  50)

     Smooth grid:    15593 G-vectors     FFT dimensions: (  36,  36,  36)

     Estimated max dynamical RAM per process >     170.82 MB

     Initial potential from superposition of free atoms

     starting charge   13.99765, renormalised to   14.00000
     Starting wfcs are    9 randomized atomic wfcs +    2 random wfcs

     total cpu time spent up to now is        2.5 secs

     Self-consistent Calculation

     iteration #  1     ecut=    70.00 Ry     beta= 0.70
     Davidson diagonalization with overlap
     ethr =  1.00E-02,  avg # of iterations =  4.0

     Threshold (ethr) on eigenvalues was too large:
     Diagonalizing with lowered threshold

     Davidson diagonalization with overlap
     ethr =  1.69E-05,  avg # of iterations =  3.6

     total cpu time spent up to now is        8.8 secs

     total energy              =    -135.43478938 Ry
     Harris-Foulkes estimate   =    -135.43621982 Ry
     estimated scf accuracy    <       0.00238212 Ry

     iteration #  2     ecut=    70.00 Ry     beta= 0.70
     Davidson diagonalization with overlap
     ethr =  1.70E-05,  avg # of iterations =  2.1

     total cpu time spent up to now is       11.8 secs

     total energy              =    -135.43527158 Ry
     Harris-Foulkes estimate   =    -135.43539070 Ry
     estimated scf accuracy    <       0.00020889 Ry

     iteration #  3     ecut=    70.00 Ry     beta= 0.70
     Davidson diagonalization with overlap
     ethr =  1.49E-06,  avg # of iterations =  2.5

     total cpu time spent up to now is       14.8 secs

     total energy              =    -135.43531515 Ry
     Harris-Foulkes estimate   =    -135.43531621 Ry
     estimated scf accuracy    <       0.00000979 Ry

     iteration #  4     ecut=    70.00 Ry     beta= 0.70
     Davidson diagonalization with overlap
     ethr =  6.99E-08,  avg # of iterations =  1.9

     total cpu time spent up to now is       17.6 secs

     total energy              =    -135.43531634 Ry
     Harris-Foulkes estimate   =    -135.43531627 Ry
     estimated scf accuracy    <       0.00000010 Ry

     iteration #  5     ecut=    70.00 Ry     beta= 0.70
     Davidson diagonalization with overlap
     ethr =  7.16E-10,  avg # of iterations =  2.2

     total cpu time spent up to now is       20.7 secs

     total energy              =    -135.43531637 Ry
     Harris-Foulkes estimate   =    -135.43531638 Ry
     estimated scf accuracy    <       0.00000001 Ry

     iteration #  6     ecut=    70.00 Ry     beta= 0.70
     Davidson diagonalization with overlap
     ethr =  9.73E-11,  avg # of iterations =  2.1

     total cpu time spent up to now is       24.2 secs

     End of self-consistent calculation

          k = 0.0000 0.0000 0.0000 (  1917 PWs)   bands (ev):

    -5.2346  -5.2346  -5.2346  -5.0754  -5.0754  -0.1820  19.6432  19.6432
    19.6432  21.9775  23.7519

          k =-0.1000 0.1000-0.1000 (  1940 PWs)   bands (ev):

    -5.2356  -5.2192  -5.2192  -5.0761  -5.0761   0.0192  17.5274  19.3927
    19.3927  21.6088  24.5516

          k =-0.2000 0.2000-0.2000 (  1943 PWs)   bands (ev):

    -5.2414  -5.1958  -5.1958  -5.0598  -5.0598   0.6245  14.2697  18.8409
    18.8409  21.2657  24.4743

          k =-0.3000 0.3000-0.3000 (  1934 PWs)   bands (ev):

    -5.2542  -5.1999  -5.1999  -5.0050  -5.0050   1.6181  11.2227  18.2732
    18.2732  21.1165  23.1780

          k =-0.4000 0.4000-0.4000 (  1937 PWs)   bands (ev):

    -5.2685  -5.2157  -5.2157  -4.9473  -4.9473   2.8794   8.6957  17.8648
    17.8648  21.1875  22.2227

          k = 0.5000-0.5000 0.5000 (  1946 PWs)   bands (ev):

    -5.2749  -5.2229  -5.2229  -4.9238  -4.9238   3.7001   7.4489  17.7168
    17.7168  21.3865  21.7293

          k = 0.0000 0.2000 0.0000 (  1941 PWs)   bands (ev):

    -5.2528  -5.2034  -5.2034  -5.0946  -5.0623   0.0862  18.1893  18.5766
    18.5766  21.1816  24.1170

          k =-0.1000 0.3000-0.1000 (  1945 PWs)   bands (ev):

    -5.2625  -5.1762  -5.1720  -5.1050  -5.0420   0.5567  15.3805  17.7860
    18.3576  21.3285  22.7872

          k =-0.2000 0.4000-0.2000 (  1944 PWs)   bands (ev):

    -5.2636  -5.1845  -5.1661  -5.0680  -4.9927   1.4229  12.3055  17.2234
    17.6678  20.9678  23.2288

          k =-0.3000 0.5000-0.3000 (  1935 PWs)   bands (ev):

    -5.2648  -5.2066  -5.1810  -5.0071  -4.9401   2.6134   9.6171  16.8804
    16.9853  20.4712  23.5225

          k = 0.6000-0.4000 0.6000 (  1942 PWs)   bands (ev):

    -5.2629  -5.2211  -5.1946  -4.9591  -4.9221   3.7218   7.8186  16.2379
    17.1229  20.4099  23.1369

          k = 0.5000-0.3000 0.5000 (  1941 PWs)   bands (ev):

    -5.2540  -5.2214  -5.1956  -4.9521  -4.9456   3.4249   8.2581  15.8922
    17.6386  20.7569  22.7795

          k = 0.4000-0.2000 0.4000 (  1942 PWs)   bands (ev):

    -5.2452  -5.2064  -5.1832  -5.0184  -4.9703   2.1901  10.4591  15.9087
    18.4547  21.4672  22.6347

          k = 0.3000-0.1000 0.3000 (  1940 PWs)   bands (ev):

    -5.2419  -5.1899  -5.1725  -5.0842  -5.0162   1.0920  13.2847  16.3118
    19.3361  22.1927  22.9653

          k = 0.2000 0.0000 0.2000 (  1945 PWs)   bands (ev):

    -5.2412  -5.1988  -5.1944  -5.0932  -5.0550   0.3553  16.0992  17.3459
    19.7780  22.0143  24.1661

          k = 0.0000 0.4000 0.0000 (  1956 PWs)   bands (ev):

    -5.3001  -5.1504  -5.1195  -5.1195  -5.0277   0.8915  15.7292  16.8070
    16.8070  20.0952  20.9433

          k =-0.1000 0.5000-0.1000 (  1946 PWs)   bands (ev):

    -5.3136  -5.1840  -5.0924  -5.0709  -4.9870   1.6227  13.3671  16.0575
    16.1246  19.7822  20.8985

          k =-0.2000 0.6000-0.2000 (  1936 PWs)   bands (ev):

    -5.3046  -5.1970  -5.1026  -5.0403  -4.9342   2.6994  10.7845  14.9346
    15.8332  19.3399  22.9064

          k = 0.7000-0.3000 0.7000 (  1940 PWs)   bands (ev):

    -5.2894  -5.1844  -5.1195  -5.0241  -4.9175   3.8705   8.7752  13.9397
    15.9788  19.3122  25.2137

          k = 0.6000-0.2000 0.6000 (  1941 PWs)   bands (ev):

    -5.2675  -5.1756  -5.1292  -5.0082  -4.9512   4.1181   8.4392  13.2949
    16.5630  19.6512  24.9217

          k = 0.5000-0.1000 0.5000 (  1940 PWs)   bands (ev):

    -5.2370  -5.1916  -5.1255  -5.0238  -4.9917   3.0827  10.1036  13.1258
    17.5225  20.3479  24.5089

          k = 0.4000 0.0000 0.4000 (  1947 PWs)   bands (ev):

    -5.2213  -5.2061  -5.1094  -5.1073  -4.9910   1.9401  12.1707  13.8519
    18.6527  21.4040  23.8186

          k = 0.0000 0.6000 0.0000 (  1960 PWs)   bands (ev):

    -5.3582  -5.2285  -5.0116  -5.0116  -4.9846   2.2154  12.9152  15.3036
    15.3036  18.7940  19.2925

          k =-0.1000 0.7000-0.1000 (  1945 PWs)   bands (ev):

    -5.3649  -5.2540  -5.0089  -4.9772  -4.9320   3.1573  11.2307  13.9808
    14.8872  18.5150  20.0850

          k = 0.8000-0.2000 0.8000 (  1934 PWs)   bands (ev):

    -5.3412  -5.2336  -5.0260  -4.9880  -4.9104   4.2560   9.6949  12.3326
    14.9320  18.5284  22.3543

          k = 0.7000-0.1000 0.7000 (  1930 PWs)   bands (ev):

    -5.3107  -5.1593  -5.0440  -5.0391  -4.9408   4.7987   9.1993  11.1432
    15.4423  18.8216  25.1675

          k = 0.6000-0.0000 0.6000 (  1933 PWs)   bands (ev):

    -5.2737  -5.1188  -5.0677  -5.0615  -4.9990   4.1335  10.0181  10.9889
    16.3607  19.4240  26.6870

          k = 0.0000 0.8000 0.0000 (  1944 PWs)   bands (ev):

    -5.4048  -5.2974  -4.9495  -4.9206  -4.9206   3.9437  10.0960  14.3282
    14.3282  17.7092  18.8183

          k = 0.9000-0.1000 0.9000 (  1940 PWs)   bands (ev):

    -5.3966  -5.3019  -4.9556  -4.9151  -4.8975   4.8418   9.0615  12.9967
    14.2344  17.9516  19.7058

          k = 0.8000 0.0000 0.8000 (  1930 PWs)   bands (ev):

    -5.3561  -5.2505  -4.9818  -4.9640  -4.9158   5.2131   9.0979  11.2222
    14.6214  18.2853  22.1565

          k = 0.0000-1.0000 0.0000 (  1964 PWs)   bands (ev):

    -5.4226  -5.3250  -4.9361  -4.8851  -4.8851   5.2150   8.4282  13.9913
    13.9913  17.3856  18.6624

          k =-0.2000 0.4000 0.0000 (  1951 PWs)   bands (ev):

    -5.2719  -5.1714  -5.1233  -5.1187  -5.0094   1.1584  14.0067  15.5988
    18.2428  21.6073  21.6803

          k =-0.3000 0.5000-0.1000 (  1943 PWs)   bands (ev):

    -5.2616  -5.1941  -5.1303  -5.0630  -4.9701   2.1337  11.5569  14.6492
    17.3235  21.0616  23.0699

          k = 0.6000-0.4000 0.8000 (  1935 PWs)   bands (ev):

    -5.2485  -5.2174  -5.1364  -5.0162  -4.9409   3.3440   9.2202  14.3892
    16.4209  20.7608  23.1828

          k = 0.5000-0.3000 0.7000 (  1936 PWs)   bands (ev):

    -5.2362  -5.2351  -5.1371  -4.9975  -4.9309   4.0993   8.0742  14.3618
    16.0450  20.6686  22.9923

          k =-0.2000 0.6000 0.0000 (  1950 PWs)   bands (ev):

    -5.3208  -5.2131  -5.0781  -5.0142  -4.9594   2.4622  12.0975  14.1727
    15.5684  20.0776  20.7811

          k = 0.7000-0.3000 0.9000 (  1936 PWs)   bands (ev):

    -5.2977  -5.2163  -5.0876  -4.9958  -4.9343   3.5732  10.2906  13.1002
    14.7328  20.1888  22.6688

          k = 0.6000-0.2000 0.8000 (  1940 PWs)   bands (ev):

    -5.2745  -5.1865  -5.0849  -5.0349  -4.9253   4.5139   8.9459  12.3624
    14.6237  20.3851  24.4134

          k = 0.5000-0.1000 0.7000 (  1939 PWs)   bands (ev):

    -5.2499  -5.1827  -5.0884  -5.0405  -4.9552   4.2441   9.3755  11.9483
    15.1889  20.8519  24.0738

          k = 0.4000 0.0000 0.6000 (  1936 PWs)   bands (ev):

    -5.2229  -5.2205  -5.1125  -5.0180  -4.9851   3.1577  10.8127  12.4322
    16.1973  21.4408  23.6070

          k = 0.8000-0.2000 1.0000 (  1945 PWs)   bands (ev):

    -5.3609  -5.2720  -5.0067  -4.9341  -4.9214   4.1189  10.0868  13.2530
    13.6967  19.2551  20.2456

          k = 0.7000-0.1000 0.9000 (  1932 PWs)   bands (ev):

    -5.3229  -5.2432  -5.0278  -4.9800  -4.9022   4.9823   9.4285  11.5754
    13.5930  19.7729  22.3160

          k = 0.6000 0.0000 0.8000 (  1937 PWs)   bands (ev):

    -5.2866  -5.1598  -5.0872  -5.0266  -4.9250   4.9995  10.0551  10.1882
    14.1754  20.2392  25.1966

          k =-0.2000-1.0000 0.0000 (  1948 PWs)   bands (ev):

    -5.3763  -5.2963  -4.9603  -4.9421  -4.8851   5.2534   8.7651  12.9353
    13.1163  18.9967  20.0661

          k = 0.6000-0.2000 1.0000 (  1928 PWs)   bands (ev):

    -5.2420  -5.2298  -5.1039  -4.9961  -4.9234   4.5565   9.9961  11.5206
    13.4732  21.9513  23.0522

          k = 0.5000-0.1000 0.9000 (  1932 PWs)   bands (ev):

    -5.2364  -5.1802  -5.1346  -5.0276  -4.9031   5.0763   9.7475  10.9894
    12.9700  22.2629  23.9736

          k =-0.4000-1.0000 0.0000 (  1930 PWs)   bands (ev):

    -5.2505  -5.2377  -5.0851  -5.0120  -4.8850   5.3192   9.7320  11.2062
    12.2304  22.0175  22.8560

     the Fermi energy is    11.9097 ev

!    total energy              =    -135.43531637 Ry
     Harris-Foulkes estimate   =    -135.43531637 Ry
     estimated scf accuracy    <          6.5E-10 Ry

     The total energy is the sum of the following terms:

     one-electron contribution =     -31.47254705 Ry
     hartree contribution      =      26.09995933 Ry
     xc contribution           =     -32.62450548 Ry
     ewald contribution        =     -97.43857717 Ry
     smearing contrib. (-TS)   =       0.00035400 Ry

     convergence has been achieved in   6 iterations

     Writing output data file Pb.save/

     init_run     :      1.71s CPU      1.78s WALL (       1 calls)
     electrons    :     20.94s CPU     21.69s WALL (       1 calls)

     Called by init_run:
     wfcinit      :      0.76s CPU      0.77s WALL (       1 calls)
     potinit      :      0.07s CPU      0.08s WALL (       1 calls)
     hinit0       :      0.77s CPU      0.77s WALL (       1 calls)

     Called by electrons:
     c_bands      :     16.79s CPU     16.94s WALL (       7 calls)
     sum_band     :      3.22s CPU      3.54s WALL (       7 calls)
     v_of_rho     :      0.41s CPU      0.43s WALL (       7 calls)
     newd         :      0.58s CPU      0.88s WALL (       7 calls)
     mix_rho      :      0.04s CPU      0.04s WALL (       7 calls)

     Called by c_bands:
     init_us_2    :      0.36s CPU      0.37s WALL (     705 calls)
     cegterg      :     15.95s CPU     16.08s WALL (     329 calls)

     Called by sum_band:
     sum_band:bec :      0.00s CPU      0.00s WALL (     329 calls)
     addusdens    :      0.70s CPU      1.00s WALL (       7 calls)

     Called by *egterg:
     h_psi        :     12.86s CPU     12.97s WALL (    1241 calls)
     s_psi        :      0.63s CPU      0.63s WALL (    1241 calls)
     g_psi        :      0.08s CPU      0.09s WALL (     865 calls)
     cdiaghg      :      0.27s CPU      0.27s WALL (    1147 calls)

     Called by h_psi:
     h_psi:pot    :     12.82s CPU     12.93s WALL (    1241 calls)
     h_psi:calbec :      0.70s CPU      0.70s WALL (    1241 calls)
     vloc_psi     :     11.46s CPU     11.57s WALL (    1241 calls)
     add_vuspsi   :      0.65s CPU      0.65s WALL (    1241 calls)

     General routines
     calbec       :      0.92s CPU      0.93s WALL (    1570 calls)
     fft          :      0.20s CPU      0.20s WALL (      90 calls)
     ffts         :      0.02s CPU      0.02s WALL (      14 calls)
     fftw         :     11.76s CPU     11.87s WALL (   23373 calls)
     interpolate  :      0.03s CPU      0.03s WALL (       7 calls)

     Parallel routines

     PWSCF        :     23.45s CPU     24.31s WALL


   This run was terminated on:  19:59:47  30Jun2021            

=------------------------------------------------------------------------------=
   JOB DONE.
=------------------------------------------------------------------------------=
