
     Program PWSCF v.6.4.1 starts on 30Jun2021 at 20: 4:57 

     This program is part of the open-source Quantum ESPRESSO suite
     for quantum simulation of materials; please cite
         "P. Giannozzi et al., J. Phys.:Condens. Matter 21 395502 (2009);
         "P. Giannozzi et al., J. Phys.:Condens. Matter 29 465901 (2017);
          URL http://www.quantum-espresso.org", 
     in publications or presentations arising from this work. More details at
     http://www.quantum-espresso.org/quote

     Parallel version (MPI), running on     1 processors

     MPI processes distributed on     1 nodes
     Waiting for input...
     Reading input from standard input

     Current dimensions of program PWSCF are:
     Max number of different atomic species (ntypx) = 10
     Max number of k-points (npk) =  40000
     Max angular momentum in pseudopotentials (lmaxx) =  3
               file Pb.pbe-dn-rrkjus_psl.1.0.0.UPF: wavefunction(s)  6S 5D renormalized

     Subspace diagonalization in iterative solution of the eigenvalue problem:
     a serial algorithm will be used


     G-vector sticks info
     --------------------
     sticks:   dense  smooth     PW     G-vecs:    dense   smooth      PW
     Sum        1639     823    253                43895    15593    2685


     Title: 
     Lead                                                                       


     bravais-lattice index     =            2
     lattice parameter (alat)  =       9.2226  a.u.
     unit-cell volume          =     196.1075 (a.u.)^3
     number of atoms/cell      =            1
     number of atomic types    =            1
     number of electrons       =        14.00
     number of Kohn-Sham states=           11
     kinetic-energy cutoff     =      70.0000  Ry
     charge density cutoff     =     560.0000  Ry
     convergence threshold     =      1.0E-09
     mixing beta               =       0.7000
     number of iterations used =            8  plain     mixing
     Exchange-correlation      = PBE ( 1  4  3  4 0 0)

     celldm(1)=   9.222558  celldm(2)=   0.000000  celldm(3)=   0.000000
     celldm(4)=   0.000000  celldm(5)=   0.000000  celldm(6)=   0.000000

     crystal axes: (cart. coord. in units of alat)
               a(1) = (  -0.500000   0.000000   0.500000 )  
               a(2) = (   0.000000   0.500000   0.500000 )  
               a(3) = (  -0.500000   0.500000   0.000000 )  

     reciprocal axes: (cart. coord. in units 2 pi/alat)
               b(1) = ( -1.000000 -1.000000  1.000000 )  
               b(2) = (  1.000000  1.000000  1.000000 )  
               b(3) = ( -1.000000  1.000000 -1.000000 )  


     PseudoPot. # 1 for Pb read from file:
     /home/elena/qe-6.7/pseudo/Pb.pbe-dn-rrkjus_psl.1.0.0.UPF
     MD5 check sum: 1cf8f5e18580e6a90a35f98a53d336de
     Pseudo is Ultrasoft + core correction, Zval = 14.0
     Generated using "atomic" code by A. Dal Corso v.6.3
     Using radial grid of 1281 points,  6 beta functions with: 
                l(1) =   0
                l(2) =   0
                l(3) =   1
                l(4) =   1
                l(5) =   2
                l(6) =   2
     Q(r) pseudized with 0 coefficients 


     atomic species   valence    mass     pseudopotential
        Pb            14.00   207.20000     Pb( 1.00)

     48 Sym. Ops., with inversion, found



   Cartesian axes

     site n.     atom                  positions (alat units)
         1           Pb  tau(   1) = (   0.0000000   0.0000000   0.0000000  )

     number of k points=    72  Methfessel-Paxton smearing, width (Ry)=  0.0300
                       cart. coord. in units 2pi/alat
        k(    1) = (   0.0000000   0.0000000   0.0000000), wk =   0.0011574
        k(    2) = (  -0.0833333   0.0833333  -0.0833333), wk =   0.0092593
        k(    3) = (  -0.1666667   0.1666667  -0.1666667), wk =   0.0092593
        k(    4) = (  -0.2500000   0.2500000  -0.2500000), wk =   0.0092593
        k(    5) = (  -0.3333333   0.3333333  -0.3333333), wk =   0.0092593
        k(    6) = (  -0.4166667   0.4166667  -0.4166667), wk =   0.0092593
        k(    7) = (   0.5000000  -0.5000000   0.5000000), wk =   0.0046296
        k(    8) = (   0.0000000   0.1666667   0.0000000), wk =   0.0069444
        k(    9) = (  -0.0833333   0.2500000  -0.0833333), wk =   0.0277778
        k(   10) = (  -0.1666667   0.3333333  -0.1666667), wk =   0.0277778
        k(   11) = (  -0.2500000   0.4166667  -0.2500000), wk =   0.0277778
        k(   12) = (  -0.3333333   0.5000000  -0.3333333), wk =   0.0277778
        k(   13) = (   0.5833333  -0.4166667   0.5833333), wk =   0.0277778
        k(   14) = (   0.5000000  -0.3333333   0.5000000), wk =   0.0277778
        k(   15) = (   0.4166667  -0.2500000   0.4166667), wk =   0.0277778
        k(   16) = (   0.3333333  -0.1666667   0.3333333), wk =   0.0277778
        k(   17) = (   0.2500000  -0.0833333   0.2500000), wk =   0.0277778
        k(   18) = (   0.1666667  -0.0000000   0.1666667), wk =   0.0138889
        k(   19) = (   0.0000000   0.3333333   0.0000000), wk =   0.0069444
        k(   20) = (  -0.0833333   0.4166667  -0.0833333), wk =   0.0277778
        k(   21) = (  -0.1666667   0.5000000  -0.1666667), wk =   0.0277778
        k(   22) = (  -0.2500000   0.5833333  -0.2500000), wk =   0.0277778
        k(   23) = (   0.6666667  -0.3333333   0.6666667), wk =   0.0277778
        k(   24) = (   0.5833333  -0.2500000   0.5833333), wk =   0.0277778
        k(   25) = (   0.5000000  -0.1666667   0.5000000), wk =   0.0277778
        k(   26) = (   0.4166667  -0.0833333   0.4166667), wk =   0.0277778
        k(   27) = (   0.3333333   0.0000000   0.3333333), wk =   0.0138889
        k(   28) = (   0.0000000   0.5000000   0.0000000), wk =   0.0069444
        k(   29) = (  -0.0833333   0.5833333  -0.0833333), wk =   0.0277778
        k(   30) = (  -0.1666667   0.6666667  -0.1666667), wk =   0.0277778
        k(   31) = (   0.7500000  -0.2500000   0.7500000), wk =   0.0277778
        k(   32) = (   0.6666667  -0.1666667   0.6666667), wk =   0.0277778
        k(   33) = (   0.5833333  -0.0833333   0.5833333), wk =   0.0277778
        k(   34) = (   0.5000000   0.0000000   0.5000000), wk =   0.0138889
        k(   35) = (   0.0000000   0.6666667   0.0000000), wk =   0.0069444
        k(   36) = (  -0.0833333   0.7500000  -0.0833333), wk =   0.0277778
        k(   37) = (   0.8333333  -0.1666667   0.8333333), wk =   0.0277778
        k(   38) = (   0.7500000  -0.0833333   0.7500000), wk =   0.0277778
        k(   39) = (   0.6666667  -0.0000000   0.6666667), wk =   0.0138889
        k(   40) = (   0.0000000   0.8333333   0.0000000), wk =   0.0069444
        k(   41) = (   0.9166667  -0.0833333   0.9166667), wk =   0.0277778
        k(   42) = (   0.8333333   0.0000000   0.8333333), wk =   0.0138889
        k(   43) = (   0.0000000  -1.0000000   0.0000000), wk =   0.0034722
        k(   44) = (  -0.1666667   0.3333333   0.0000000), wk =   0.0277778
        k(   45) = (  -0.2500000   0.4166667  -0.0833333), wk =   0.0555556
        k(   46) = (  -0.3333333   0.5000000  -0.1666667), wk =   0.0555556
        k(   47) = (   0.5833333  -0.4166667   0.7500000), wk =   0.0555556
        k(   48) = (   0.5000000  -0.3333333   0.6666667), wk =   0.0277778
        k(   49) = (  -0.1666667   0.5000000   0.0000000), wk =   0.0277778
        k(   50) = (  -0.2500000   0.5833333  -0.0833333), wk =   0.0555556
        k(   51) = (   0.6666667  -0.3333333   0.8333333), wk =   0.0555556
        k(   52) = (   0.5833333  -0.2500000   0.7500000), wk =   0.0555556
        k(   53) = (   0.5000000  -0.1666667   0.6666667), wk =   0.0555556
        k(   54) = (   0.4166667  -0.0833333   0.5833333), wk =   0.0555556
        k(   55) = (   0.3333333   0.0000000   0.5000000), wk =   0.0277778
        k(   56) = (  -0.1666667   0.6666667  -0.0000000), wk =   0.0277778
        k(   57) = (   0.7500000  -0.2500000   0.9166667), wk =   0.0555556
        k(   58) = (   0.6666667  -0.1666667   0.8333333), wk =   0.0555556
        k(   59) = (   0.5833333  -0.0833333   0.7500000), wk =   0.0555556
        k(   60) = (   0.5000000   0.0000000   0.6666667), wk =   0.0277778
        k(   61) = (   0.8333333  -0.1666667   1.0000000), wk =   0.0277778
        k(   62) = (   0.7500000  -0.0833333   0.9166667), wk =   0.0555556
        k(   63) = (   0.6666667   0.0000000   0.8333333), wk =   0.0277778
        k(   64) = (  -0.1666667  -1.0000000  -0.0000000), wk =   0.0138889
        k(   65) = (   0.6666667  -0.3333333   1.0000000), wk =   0.0277778
        k(   66) = (   0.5833333  -0.2500000   0.9166667), wk =   0.0555556
        k(   67) = (   0.5000000  -0.1666667   0.8333333), wk =   0.0277778
        k(   68) = (   0.6666667  -0.1666667   1.0000000), wk =   0.0277778
        k(   69) = (   0.5833333  -0.0833333   0.9166667), wk =   0.0555556
        k(   70) = (   0.5000000   0.0000000   0.8333333), wk =   0.0277778
        k(   71) = (  -0.3333333  -1.0000000   0.0000000), wk =   0.0138889
        k(   72) = (  -0.5000000  -1.0000000   0.0000000), wk =   0.0069444

     Dense  grid:    43895 G-vectors     FFT dimensions: (  50,  50,  50)

     Smooth grid:    15593 G-vectors     FFT dimensions: (  36,  36,  36)

     Estimated max dynamical RAM per process >     178.96 MB

     Initial potential from superposition of free atoms

     starting charge   13.99765, renormalised to   14.00000
     Starting wfcs are    9 randomized atomic wfcs +    2 random wfcs

     total cpu time spent up to now is        3.3 secs

     Self-consistent Calculation

     iteration #  1     ecut=    70.00 Ry     beta= 0.70
     Davidson diagonalization with overlap
     ethr =  1.00E-02,  avg # of iterations =  4.2

     Threshold (ethr) on eigenvalues was too large:
     Diagonalizing with lowered threshold

     Davidson diagonalization with overlap
     ethr =  1.60E-05,  avg # of iterations =  3.5

     total cpu time spent up to now is       13.0 secs

     total energy              =    -135.43424198 Ry
     Harris-Foulkes estimate   =    -135.43560476 Ry
     estimated scf accuracy    <       0.00226800 Ry

     iteration #  2     ecut=    70.00 Ry     beta= 0.70
     Davidson diagonalization with overlap
     ethr =  1.62E-05,  avg # of iterations =  2.1

     total cpu time spent up to now is       17.6 secs

     total energy              =    -135.43470158 Ry
     Harris-Foulkes estimate   =    -135.43481531 Ry
     estimated scf accuracy    <       0.00019947 Ry

     iteration #  3     ecut=    70.00 Ry     beta= 0.70
     Davidson diagonalization with overlap
     ethr =  1.42E-06,  avg # of iterations =  2.2

     total cpu time spent up to now is       21.8 secs

     total energy              =    -135.43474312 Ry
     Harris-Foulkes estimate   =    -135.43474416 Ry
     estimated scf accuracy    <       0.00000946 Ry

     iteration #  4     ecut=    70.00 Ry     beta= 0.70
     Davidson diagonalization with overlap
     ethr =  6.75E-08,  avg # of iterations =  2.0

     total cpu time spent up to now is       25.6 secs

     total energy              =    -135.43474426 Ry
     Harris-Foulkes estimate   =    -135.43474419 Ry
     estimated scf accuracy    <       0.00000009 Ry

     iteration #  5     ecut=    70.00 Ry     beta= 0.70
     Davidson diagonalization with overlap
     ethr =  6.61E-10,  avg # of iterations =  2.1

     total cpu time spent up to now is       30.2 secs

     total energy              =    -135.43474428 Ry
     Harris-Foulkes estimate   =    -135.43474429 Ry
     estimated scf accuracy    <       0.00000001 Ry

     iteration #  6     ecut=    70.00 Ry     beta= 0.70
     Davidson diagonalization with overlap
     ethr =  8.60E-11,  avg # of iterations =  2.0

     total cpu time spent up to now is       34.9 secs

     End of self-consistent calculation

          k = 0.0000 0.0000 0.0000 (  1917 PWs)   bands (ev):

    -5.2256  -5.2256  -5.2256  -5.0665  -5.0665  -0.1791  19.6461  19.6461
    19.6461  21.9787  23.7545

          k =-0.0833 0.0833-0.0833 (  1947 PWs)   bands (ev):

    -5.2263  -5.2145  -5.2145  -5.0674  -5.0674  -0.0394  18.0474  19.4673
    19.4673  21.6808  24.3745

          k =-0.1667 0.1667-0.1667 (  1940 PWs)   bands (ev):

    -5.2298  -5.1923  -5.1923  -5.0605  -5.0605   0.3810  15.3557  19.0412
    19.0412  21.3632  24.9137

          k =-0.2500 0.2500-0.2500 (  1949 PWs)   bands (ev):

    -5.2382  -5.1856  -5.1856  -5.0270  -5.0270   1.0790  12.7018  18.5489
    18.5489  21.1660  23.7916

          k =-0.3333 0.3333-0.3333 (  1940 PWs)   bands (ev):

    -5.2504  -5.1964  -5.1964  -4.9747  -4.9747   2.0253  10.3080  18.1160
    18.1160  21.1173  22.8207

          k =-0.4167 0.4167-0.4167 (  1937 PWs)   bands (ev):

    -5.2614  -5.2089  -5.2089  -4.9312  -4.9312   3.0898   8.3611  17.8231
    17.8231  21.2217  22.1022

          k = 0.5000-0.5000 0.5000 (  1946 PWs)   bands (ev):

    -5.2660  -5.2140  -5.2140  -4.9146  -4.9146   3.7041   7.4507  17.7197
    17.7197  21.3873  21.7323

          k = 0.0000 0.1667 0.0000 (  1941 PWs)   bands (ev):

    -5.2384  -5.2038  -5.2038  -5.0798  -5.0573   0.0071  18.5542  18.8552
    18.8552  21.3731  24.5261

          k =-0.0833 0.2500-0.0833 (  1944 PWs)   bands (ev):

    -5.2460  -5.1807  -5.1783  -5.0901  -5.0449   0.3338  16.2643  18.2045
    18.7502  21.3991  23.4619

          k =-0.1667 0.3333-0.1667 (  1938 PWs)   bands (ev):

    -5.2480  -5.1732  -5.1639  -5.0750  -5.0137   0.9398  13.6234  17.6610
    18.2776  21.4482  23.0800

          k =-0.2500 0.4167-0.2500 (  1941 PWs)   bands (ev):

    -5.2510  -5.1877  -5.1704  -5.0284  -4.9657   1.8066  11.1614  17.3003
    17.6688  20.9598  23.2401

          k =-0.3333 0.5000-0.3333 (  1939 PWs)   bands (ev):

    -5.2548  -5.2048  -5.1842  -4.9765  -4.9260   2.8519   9.0597  17.0752
    17.1679  20.6444  23.0953

          k = 0.5833-0.4167 0.5833 (  1941 PWs)   bands (ev):

    -5.2553  -5.2147  -5.1942  -4.9397  -4.9134   3.7171   7.7105  16.6090
    17.2889  20.6193  22.7885

          k = 0.5000-0.3333 0.5000 (  1939 PWs)   bands (ev):

    -5.2507  -5.2134  -5.1948  -4.9346  -4.9301   3.4981   8.0284  16.3471
    17.6626  20.8661  22.5357

          k = 0.4167-0.2500 0.4167 (  1936 PWs)   bands (ev):

    -5.2432  -5.2016  -5.1858  -4.9835  -4.9494   2.4938   9.7114  16.3245
    18.2491  21.3389  22.4539

          k = 0.3333-0.1667 0.3333 (  1938 PWs)   bands (ev):

    -5.2366  -5.1863  -5.1729  -5.0429  -4.9882   1.4910  11.9520  16.5475
    18.9460  21.8382  22.7335

          k = 0.2500-0.0833 0.2500 (  1942 PWs)   bands (ev):

    -5.2332  -5.1800  -5.1751  -5.0811  -5.0287   0.7074  14.4663  17.0213
    19.5523  22.0198  23.6064

          k = 0.1667-0.0000 0.1667 (  1945 PWs)   bands (ev):

    -5.2311  -5.2004  -5.1930  -5.0797  -5.0541   0.1939  16.8479  17.9312
    19.7732  21.8621  24.3201

          k = 0.0000 0.3333 0.0000 (  1960 PWs)   bands (ev):

    -5.2732  -5.1429  -5.1429  -5.1193  -5.0321   0.5667  16.5967  17.3924
    17.3924  20.4347  21.9274

          k =-0.0833 0.4167-0.0833 (  1955 PWs)   bands (ev):

    -5.2860  -5.1511  -5.1142  -5.0978  -5.0057   1.0785  14.5132  16.7483
    16.9955  20.4402  21.1904

          k =-0.1667 0.5000-0.1667 (  1943 PWs)   bands (ev):

    -5.2842  -5.1732  -5.1132  -5.0598  -4.9597   1.8557  12.1385  16.2421
    16.3403  19.9402  22.4296

          k =-0.2500 0.5833-0.2500 (  1943 PWs)   bands (ev):

    -5.2767  -5.1835  -5.1261  -5.0268  -4.9208   2.8399  10.0019  15.4029
    16.2080  19.6449  24.1950

          k = 0.6667-0.3333 0.6667 (  1942 PWs)   bands (ev):

    -5.2671  -5.1858  -5.1394  -4.9976  -4.9102   3.8020   8.4144  14.6909
    16.3724  19.6446  24.6606

          k = 0.5833-0.2500 0.5833 (  1948 PWs)   bands (ev):

    -5.2515  -5.1885  -5.1460  -4.9761  -4.9345   3.9954   8.1452  14.2079
    16.8328  19.9122  24.2252

          k = 0.5000-0.1667 0.5000 (  1943 PWs)   bands (ev):

    -5.2297  -5.1960  -5.1428  -4.9881  -4.9680   3.1719   9.4355  14.0111
    17.5564  20.4396  23.9025

          k = 0.4167-0.0833 0.4167 (  1939 PWs)   bands (ev):

    -5.2144  -5.1999  -5.1305  -5.0560  -4.9757   2.1592  11.3990  14.1643
    18.4513  21.2290  23.6404

          k = 0.3333 0.0000 0.3333 (  1935 PWs)   bands (ev):

    -5.2263  -5.1835  -5.1327  -5.0995  -4.9977   1.3081  13.3397  14.9751
    19.2818  22.2760  23.0791

          k = 0.0000 0.5000 0.0000 (  1964 PWs)   bands (ev):

    -5.3204  -5.1795  -5.0571  -5.0571  -4.9973   1.4950  14.3590  16.0025
    16.0025  19.6548  19.7180

          k =-0.0833 0.5833-0.0833 (  1945 PWs)   bands (ev):

    -5.3322  -5.2070  -5.0388  -5.0190  -4.9588   2.1775  12.7179  15.1381
    15.5071  19.1216  20.1630

          k =-0.1667 0.6667-0.1667 (  1936 PWs)   bands (ev):

    -5.3226  -5.2133  -5.0490  -5.0035  -4.9171   3.0789  10.8746  13.9737
    15.3072  18.8772  21.7949

          k = 0.7500-0.2500 0.7500 (  1941 PWs)   bands (ev):

    -5.3049  -5.1875  -5.0637  -5.0116  -4.9052   4.0347   9.3307  12.9546
    15.4248  18.8850  23.8995

          k = 0.6667-0.1667 0.6667 (  1944 PWs)   bands (ev):

    -5.2841  -5.1441  -5.0758  -5.0320  -4.9296   4.5073   8.7144  12.2246
    15.8589  19.1243  26.1460

          k = 0.5833-0.0833 0.5833 (  1941 PWs)   bands (ev):

    -5.2574  -5.1353  -5.0822  -5.0267  -4.9830   3.9765   9.5281  11.8784
    16.5788  19.5940  25.8269

          k = 0.5000 0.0000 0.5000 (  1947 PWs)   bands (ev):

    -5.2277  -5.1725  -5.0883  -5.0433  -4.9932   3.0359  10.7956  12.3182
    17.5067  20.2991  25.1442

          k = 0.0000 0.6667 0.0000 (  1948 PWs)   bands (ev):

    -5.3672  -5.2455  -4.9680  -4.9680  -4.9622   2.7621  11.9491  14.9151
    14.9151  18.3326  19.1004

          k =-0.0833 0.7500-0.0833 (  1943 PWs)   bands (ev):

    -5.3722  -5.2650  -4.9746  -4.9427  -4.9145   3.5650  10.6968  13.8359
    14.6221  18.2497  19.6340

          k = 0.8333-0.1667 0.8333 (  1941 PWs)   bands (ev):

    -5.3516  -5.2517  -4.9887  -4.9524  -4.8979   4.4419   9.6629  12.3022
    14.6561  18.3274  21.3850

          k = 0.7500-0.0833 0.7500 (  1927 PWs)   bands (ev):

    -5.3231  -5.1953  -5.0057  -4.9949  -4.9177   4.9793   9.3330  10.9812
    15.0188  18.5473  23.6423

          k = 0.6667-0.0000 0.6667 (  1935 PWs)   bands (ev):

    -5.2914  -5.1131  -5.0589  -5.0316  -4.9576   4.7200   9.9771  10.2397
    15.6825  18.9635  26.1527

          k = 0.0000 0.8333 0.0000 (  1956 PWs)   bands (ev):

    -5.4013  -5.2970  -4.9365  -4.9008  -4.9008   4.2464   9.6801  14.2283
    14.2283  17.6099  18.7728

          k = 0.9167-0.0833 0.9167 (  1948 PWs)   bands (ev):

    -5.3952  -5.3003  -4.9400  -4.8970  -4.8854   4.9430   8.8950  13.2334
    14.1631  17.8494  19.3819

          k = 0.8333 0.0000 0.8333 (  1938 PWs)   bands (ev):

    -5.3624  -5.2665  -4.9599  -4.9325  -4.8973   5.2382   8.8978  11.7475
    14.4341  18.1563  21.2469

          k = 0.0000-1.0000 0.0000 (  1964 PWs)   bands (ev):

    -5.4138  -5.3163  -4.9271  -4.8759  -4.8759   5.2193   8.4302  13.9937
    13.9937  17.3872  18.6647

          k =-0.1667 0.3333 0.0000 (  1950 PWs)   bands (ev):

    -5.2554  -5.1638  -5.1457  -5.1043  -5.0221   0.7535  15.0355  16.4559
    18.7785  21.5313  22.3240

          k =-0.2500 0.4167-0.0833 (  1941 PWs)   bands (ev):

    -5.2527  -5.1735  -5.1314  -5.0824  -4.9863   1.4460  12.8585  15.5627
    18.2316  21.3623  22.7276

          k =-0.3333 0.5000-0.1667 (  1938 PWs)   bands (ev):

    -5.2463  -5.1939  -5.1417  -5.0312  -4.9498   2.3760  10.6068  15.1942
    17.4379  20.9194  23.2743

          k = 0.5833-0.4167 0.7500 (  1938 PWs)   bands (ev):

    -5.2405  -5.2133  -5.1503  -4.9868  -4.9265   3.4051   8.7468  15.0726
    16.7896  20.6788  22.9969

          k = 0.5000-0.3333 0.6667 (  1952 PWs)   bands (ev):

    -5.2356  -5.2242  -5.1533  -4.9678  -4.9203   3.9829   7.8881  15.0643
    16.5301  20.6031  22.8619

          k =-0.1667 0.5000 0.0000 (  1945 PWs)   bands (ev):

    -5.2970  -5.1748  -5.0912  -5.0595  -4.9773   1.6764  13.3405  15.1202
    16.7217  20.4622  20.7794

          k =-0.2500 0.5833-0.0833 (  1939 PWs)   bands (ev):

    -5.2877  -5.1916  -5.0941  -5.0244  -4.9448   2.5190  11.5084  14.2377
    15.9594  20.2302  22.1517

          k = 0.6667-0.3333 0.8333 (  1940 PWs)   bands (ev):

    -5.2718  -5.1917  -5.0983  -5.0151  -4.9210   3.5072   9.6892  13.7290
    15.3993  20.1583  23.9002

          k = 0.5833-0.2500 0.7500 (  1942 PWs)   bands (ev):

    -5.2570  -5.1871  -5.0914  -5.0223  -4.9190   4.2766   8.5318  13.2830
    15.3567  20.3006  23.9476

          k = 0.5000-0.1667 0.6667 (  1944 PWs)   bands (ev):

    -5.2385  -5.1926  -5.0923  -5.0195  -4.9411   4.0736   8.8419  12.9736
    15.7823  20.6477  23.6399

          k = 0.4167-0.0833 0.5833 (  1941 PWs)   bands (ev):

    -5.2154  -5.2100  -5.1045  -5.0208  -4.9668   3.1574  10.3150  12.9699
    16.5380  21.1604  23.4963

          k = 0.3333 0.0000 0.5000 (  1937 PWs)   bands (ev):

    -5.2359  -5.1911  -5.1080  -5.0627  -4.9714   2.2066  11.9266  13.6517
    17.4741  21.6475  22.9640

          k =-0.1667 0.6667-0.0000 (  1944 PWs)   bands (ev):

    -5.3392  -5.2312  -5.0301  -4.9694  -4.9378   2.9238  11.5908  14.0852
    14.8031  19.3566  20.1780

          k = 0.7500-0.2500 0.9167 (  1945 PWs)   bands (ev):

    -5.3203  -5.2315  -5.0409  -4.9610  -4.9154   3.8321  10.3152  12.9063
    14.3019  19.5569  21.6417

          k = 0.6667-0.1667 0.8333 (  1929 PWs)   bands (ev):

    -5.2956  -5.1938  -5.0554  -4.9961  -4.9082   4.6353   9.3435  11.8436
    14.3599  19.7341  23.7865

          k = 0.5833-0.0833 0.7500 (  1934 PWs)   bands (ev):

    -5.2713  -5.1385  -5.0763  -5.0353  -4.9314   4.7320   9.3716  11.1479
    14.8153  20.0962  25.4098

          k = 0.5000 0.0000 0.6667 (  1940 PWs)   bands (ev):

    -5.2433  -5.1543  -5.0897  -5.0162  -4.9741   4.0441  10.1181  11.2887
    15.5760  20.6365  25.0035

          k = 0.8333-0.1667 1.0000 (  1947 PWs)   bands (ev):

    -5.3701  -5.2781  -4.9726  -4.9169  -4.9012   4.3546   9.7387  13.4321
    13.6677  18.7635  19.8123

          k = 0.7500-0.0833 0.9167 (  1936 PWs)   bands (ev):

    -5.3397  -5.2587  -4.9867  -4.9520  -4.8882   5.0364   9.2278  11.9503
    13.6517  19.2380  21.3741

          k = 0.6667 0.0000 0.8333 (  1929 PWs)   bands (ev):

    -5.3051  -5.1966  -5.0264  -4.9988  -4.9042   5.1672   9.5755  10.6275
    14.0798  19.5959  23.6748

          k =-0.1667-1.0000-0.0000 (  1940 PWs)   bands (ev):

    -5.3813  -5.2959  -4.9441  -4.9159  -4.8758   5.2469   8.6651  13.2088
    13.3171  18.5752  19.6907

          k = 0.6667-0.3333 1.0000 (  1930 PWs)   bands (ev):

    -5.2616  -5.2082  -5.0967  -4.9727  -4.9577   3.3820  10.7932  12.6348
    15.0091  21.3572  22.3799

          k = 0.5833-0.2500 0.9167 (  1933 PWs)   bands (ev):

    -5.2342  -5.2044  -5.0965  -5.0006  -4.9287   4.2826   9.7169  11.9906
    14.2417  21.5685  23.5604

          k = 0.5000-0.1667 0.8333 (  1930 PWs)   bands (ev):

    -5.2329  -5.1875  -5.0826  -5.0360  -4.9134   4.7441   9.1130  11.8843
    13.9463  21.5761  23.5931

          k = 0.6667-0.1667 1.0000 (  1946 PWs)   bands (ev):

    -5.2826  -5.2354  -5.0562  -4.9664  -4.9023   4.6342   9.8587  11.9955
    13.1338  21.0744  21.9875

          k = 0.5833-0.0833 0.9167 (  1929 PWs)   bands (ev):

    -5.2489  -5.1968  -5.0915  -5.0068  -4.8888   5.1359   9.7629  11.0088
    12.8773  21.6309  23.8505

          k = 0.5000 0.0000 0.8333 (  1932 PWs)   bands (ev):

    -5.2329  -5.1577  -5.1301  -5.0167  -4.9036   4.9553  10.0577  10.6403
    13.3386  21.9602  24.7903

          k =-0.3333-1.0000 0.0000 (  1940 PWs)   bands (ev):

    -5.2904  -5.2476  -5.0225  -4.9864  -4.8758   5.3048   9.3479  11.7773
    12.4450  20.9647  21.8542

          k =-0.5000-1.0000 0.0000 (  1912 PWs)   bands (ev):

    -5.2158  -5.1602  -5.1602  -5.0149  -4.8756   5.3352  10.4188  10.4188
    12.1094  23.0943  24.4584

     the Fermi energy is    11.9136 ev

!    total energy              =    -135.43474428 Ry
     Harris-Foulkes estimate   =    -135.43474429 Ry
     estimated scf accuracy    <          6.0E-10 Ry

     The total energy is the sum of the following terms:

     one-electron contribution =     -31.47742745 Ry
     hartree contribution      =      26.10780696 Ry
     xc contribution           =     -32.62564321 Ry
     ewald contribution        =     -97.43857717 Ry
     smearing contrib. (-TS)   =      -0.00090343 Ry

     convergence has been achieved in   6 iterations

     Writing output data file Pb.save/

     init_run     :      2.29s CPU      2.36s WALL (       1 calls)
     electrons    :     30.78s CPU     31.64s WALL (       1 calls)

     Called by init_run:
     wfcinit      :      1.28s CPU      1.28s WALL (       1 calls)
     potinit      :      0.08s CPU      0.09s WALL (       1 calls)
     hinit0       :      0.82s CPU      0.82s WALL (       1 calls)

     Called by electrons:
     c_bands      :     25.01s CPU     25.11s WALL (       7 calls)
     sum_band     :      4.78s CPU      5.13s WALL (       7 calls)
     v_of_rho     :      0.43s CPU      0.44s WALL (       7 calls)
     newd         :      0.62s CPU      0.95s WALL (       7 calls)
     mix_rho      :      0.04s CPU      0.04s WALL (       7 calls)

     Called by c_bands:
     init_us_2    :      0.57s CPU      0.58s WALL (    1080 calls)
     cegterg      :     23.72s CPU     23.81s WALL (     504 calls)

     Called by sum_band:
     sum_band:bec :      0.01s CPU      0.01s WALL (     504 calls)
     addusdens    :      0.69s CPU      1.03s WALL (       7 calls)

     Called by *egterg:
     h_psi        :     19.13s CPU     19.20s WALL (    1876 calls)
     s_psi        :      0.95s CPU      0.96s WALL (    1876 calls)
     g_psi        :      0.13s CPU      0.13s WALL (    1300 calls)
     cdiaghg      :      0.41s CPU      0.41s WALL (    1732 calls)

     Called by h_psi:
     h_psi:pot    :     19.07s CPU     19.14s WALL (    1876 calls)
     h_psi:calbec :      1.07s CPU      1.07s WALL (    1876 calls)
     vloc_psi     :     17.01s CPU     17.07s WALL (    1876 calls)
     add_vuspsi   :      0.98s CPU      0.98s WALL (    1876 calls)

     General routines
     calbec       :      1.45s CPU      1.45s WALL (    2380 calls)
     fft          :      0.21s CPU      0.21s WALL (      90 calls)
     ffts         :      0.02s CPU      0.02s WALL (      14 calls)
     fftw         :     17.63s CPU     17.70s WALL (   35790 calls)
     interpolate  :      0.03s CPU      0.03s WALL (       7 calls)

     Parallel routines

     PWSCF        :     34.00s CPU     34.94s WALL


   This run was terminated on:  20: 5:32  30Jun2021            

=------------------------------------------------------------------------------=
   JOB DONE.
=------------------------------------------------------------------------------=
