
     Program PWSCF v.6.4.1 starts on 30Jun2021 at 20: 0:40 

     This program is part of the open-source Quantum ESPRESSO suite
     for quantum simulation of materials; please cite
         "P. Giannozzi et al., J. Phys.:Condens. Matter 21 395502 (2009);
         "P. Giannozzi et al., J. Phys.:Condens. Matter 29 465901 (2017);
          URL http://www.quantum-espresso.org", 
     in publications or presentations arising from this work. More details at
     http://www.quantum-espresso.org/quote

     Parallel version (MPI), running on     1 processors

     MPI processes distributed on     1 nodes
     Waiting for input...
     Reading input from standard input

     Current dimensions of program PWSCF are:
     Max number of different atomic species (ntypx) = 10
     Max number of k-points (npk) =  40000
     Max angular momentum in pseudopotentials (lmaxx) =  3
               file Pb.pbe-dn-rrkjus_psl.1.0.0.UPF: wavefunction(s)  6S 5D renormalized

     Subspace diagonalization in iterative solution of the eigenvalue problem:
     a serial algorithm will be used


     G-vector sticks info
     --------------------
     sticks:   dense  smooth     PW     G-vecs:    dense   smooth      PW
     Sum        1639     823    253                43895    15593    2685


     Title: 
     Lead                                                                       


     bravais-lattice index     =            2
     lattice parameter (alat)  =       9.2226  a.u.
     unit-cell volume          =     196.1075 (a.u.)^3
     number of atoms/cell      =            1
     number of atomic types    =            1
     number of electrons       =        14.00
     number of Kohn-Sham states=           11
     kinetic-energy cutoff     =      70.0000  Ry
     charge density cutoff     =     560.0000  Ry
     convergence threshold     =      1.0E-09
     mixing beta               =       0.7000
     number of iterations used =            8  plain     mixing
     Exchange-correlation      = PBE ( 1  4  3  4 0 0)

     celldm(1)=   9.222558  celldm(2)=   0.000000  celldm(3)=   0.000000
     celldm(4)=   0.000000  celldm(5)=   0.000000  celldm(6)=   0.000000

     crystal axes: (cart. coord. in units of alat)
               a(1) = (  -0.500000   0.000000   0.500000 )  
               a(2) = (   0.000000   0.500000   0.500000 )  
               a(3) = (  -0.500000   0.500000   0.000000 )  

     reciprocal axes: (cart. coord. in units 2 pi/alat)
               b(1) = ( -1.000000 -1.000000  1.000000 )  
               b(2) = (  1.000000  1.000000  1.000000 )  
               b(3) = ( -1.000000  1.000000 -1.000000 )  


     PseudoPot. # 1 for Pb read from file:
     /home/elena/qe-6.7/pseudo/Pb.pbe-dn-rrkjus_psl.1.0.0.UPF
     MD5 check sum: 1cf8f5e18580e6a90a35f98a53d336de
     Pseudo is Ultrasoft + core correction, Zval = 14.0
     Generated using "atomic" code by A. Dal Corso v.6.3
     Using radial grid of 1281 points,  6 beta functions with: 
                l(1) =   0
                l(2) =   0
                l(3) =   1
                l(4) =   1
                l(5) =   2
                l(6) =   2
     Q(r) pseudized with 0 coefficients 


     atomic species   valence    mass     pseudopotential
        Pb            14.00   207.20000     Pb( 1.00)

     48 Sym. Ops., with inversion, found



   Cartesian axes

     site n.     atom                  positions (alat units)
         1           Pb  tau(   1) = (   0.0000000   0.0000000   0.0000000  )

     number of k points=    72  Methfessel-Paxton smearing, width (Ry)=  0.1000
                       cart. coord. in units 2pi/alat
        k(    1) = (   0.0000000   0.0000000   0.0000000), wk =   0.0011574
        k(    2) = (  -0.0833333   0.0833333  -0.0833333), wk =   0.0092593
        k(    3) = (  -0.1666667   0.1666667  -0.1666667), wk =   0.0092593
        k(    4) = (  -0.2500000   0.2500000  -0.2500000), wk =   0.0092593
        k(    5) = (  -0.3333333   0.3333333  -0.3333333), wk =   0.0092593
        k(    6) = (  -0.4166667   0.4166667  -0.4166667), wk =   0.0092593
        k(    7) = (   0.5000000  -0.5000000   0.5000000), wk =   0.0046296
        k(    8) = (   0.0000000   0.1666667   0.0000000), wk =   0.0069444
        k(    9) = (  -0.0833333   0.2500000  -0.0833333), wk =   0.0277778
        k(   10) = (  -0.1666667   0.3333333  -0.1666667), wk =   0.0277778
        k(   11) = (  -0.2500000   0.4166667  -0.2500000), wk =   0.0277778
        k(   12) = (  -0.3333333   0.5000000  -0.3333333), wk =   0.0277778
        k(   13) = (   0.5833333  -0.4166667   0.5833333), wk =   0.0277778
        k(   14) = (   0.5000000  -0.3333333   0.5000000), wk =   0.0277778
        k(   15) = (   0.4166667  -0.2500000   0.4166667), wk =   0.0277778
        k(   16) = (   0.3333333  -0.1666667   0.3333333), wk =   0.0277778
        k(   17) = (   0.2500000  -0.0833333   0.2500000), wk =   0.0277778
        k(   18) = (   0.1666667  -0.0000000   0.1666667), wk =   0.0138889
        k(   19) = (   0.0000000   0.3333333   0.0000000), wk =   0.0069444
        k(   20) = (  -0.0833333   0.4166667  -0.0833333), wk =   0.0277778
        k(   21) = (  -0.1666667   0.5000000  -0.1666667), wk =   0.0277778
        k(   22) = (  -0.2500000   0.5833333  -0.2500000), wk =   0.0277778
        k(   23) = (   0.6666667  -0.3333333   0.6666667), wk =   0.0277778
        k(   24) = (   0.5833333  -0.2500000   0.5833333), wk =   0.0277778
        k(   25) = (   0.5000000  -0.1666667   0.5000000), wk =   0.0277778
        k(   26) = (   0.4166667  -0.0833333   0.4166667), wk =   0.0277778
        k(   27) = (   0.3333333   0.0000000   0.3333333), wk =   0.0138889
        k(   28) = (   0.0000000   0.5000000   0.0000000), wk =   0.0069444
        k(   29) = (  -0.0833333   0.5833333  -0.0833333), wk =   0.0277778
        k(   30) = (  -0.1666667   0.6666667  -0.1666667), wk =   0.0277778
        k(   31) = (   0.7500000  -0.2500000   0.7500000), wk =   0.0277778
        k(   32) = (   0.6666667  -0.1666667   0.6666667), wk =   0.0277778
        k(   33) = (   0.5833333  -0.0833333   0.5833333), wk =   0.0277778
        k(   34) = (   0.5000000   0.0000000   0.5000000), wk =   0.0138889
        k(   35) = (   0.0000000   0.6666667   0.0000000), wk =   0.0069444
        k(   36) = (  -0.0833333   0.7500000  -0.0833333), wk =   0.0277778
        k(   37) = (   0.8333333  -0.1666667   0.8333333), wk =   0.0277778
        k(   38) = (   0.7500000  -0.0833333   0.7500000), wk =   0.0277778
        k(   39) = (   0.6666667  -0.0000000   0.6666667), wk =   0.0138889
        k(   40) = (   0.0000000   0.8333333   0.0000000), wk =   0.0069444
        k(   41) = (   0.9166667  -0.0833333   0.9166667), wk =   0.0277778
        k(   42) = (   0.8333333   0.0000000   0.8333333), wk =   0.0138889
        k(   43) = (   0.0000000  -1.0000000   0.0000000), wk =   0.0034722
        k(   44) = (  -0.1666667   0.3333333   0.0000000), wk =   0.0277778
        k(   45) = (  -0.2500000   0.4166667  -0.0833333), wk =   0.0555556
        k(   46) = (  -0.3333333   0.5000000  -0.1666667), wk =   0.0555556
        k(   47) = (   0.5833333  -0.4166667   0.7500000), wk =   0.0555556
        k(   48) = (   0.5000000  -0.3333333   0.6666667), wk =   0.0277778
        k(   49) = (  -0.1666667   0.5000000   0.0000000), wk =   0.0277778
        k(   50) = (  -0.2500000   0.5833333  -0.0833333), wk =   0.0555556
        k(   51) = (   0.6666667  -0.3333333   0.8333333), wk =   0.0555556
        k(   52) = (   0.5833333  -0.2500000   0.7500000), wk =   0.0555556
        k(   53) = (   0.5000000  -0.1666667   0.6666667), wk =   0.0555556
        k(   54) = (   0.4166667  -0.0833333   0.5833333), wk =   0.0555556
        k(   55) = (   0.3333333   0.0000000   0.5000000), wk =   0.0277778
        k(   56) = (  -0.1666667   0.6666667  -0.0000000), wk =   0.0277778
        k(   57) = (   0.7500000  -0.2500000   0.9166667), wk =   0.0555556
        k(   58) = (   0.6666667  -0.1666667   0.8333333), wk =   0.0555556
        k(   59) = (   0.5833333  -0.0833333   0.7500000), wk =   0.0555556
        k(   60) = (   0.5000000   0.0000000   0.6666667), wk =   0.0277778
        k(   61) = (   0.8333333  -0.1666667   1.0000000), wk =   0.0277778
        k(   62) = (   0.7500000  -0.0833333   0.9166667), wk =   0.0555556
        k(   63) = (   0.6666667   0.0000000   0.8333333), wk =   0.0277778
        k(   64) = (  -0.1666667  -1.0000000  -0.0000000), wk =   0.0138889
        k(   65) = (   0.6666667  -0.3333333   1.0000000), wk =   0.0277778
        k(   66) = (   0.5833333  -0.2500000   0.9166667), wk =   0.0555556
        k(   67) = (   0.5000000  -0.1666667   0.8333333), wk =   0.0277778
        k(   68) = (   0.6666667  -0.1666667   1.0000000), wk =   0.0277778
        k(   69) = (   0.5833333  -0.0833333   0.9166667), wk =   0.0555556
        k(   70) = (   0.5000000   0.0000000   0.8333333), wk =   0.0277778
        k(   71) = (  -0.3333333  -1.0000000   0.0000000), wk =   0.0138889
        k(   72) = (  -0.5000000  -1.0000000   0.0000000), wk =   0.0069444

     Dense  grid:    43895 G-vectors     FFT dimensions: (  50,  50,  50)

     Smooth grid:    15593 G-vectors     FFT dimensions: (  36,  36,  36)

     Estimated max dynamical RAM per process >     178.96 MB

     Initial potential from superposition of free atoms

     starting charge   13.99765, renormalised to   14.00000
     Starting wfcs are    9 randomized atomic wfcs +    2 random wfcs

     total cpu time spent up to now is        3.0 secs

     Self-consistent Calculation

     iteration #  1     ecut=    70.00 Ry     beta= 0.70
     Davidson diagonalization with overlap
     ethr =  1.00E-02,  avg # of iterations =  4.2

     Threshold (ethr) on eigenvalues was too large:
     Diagonalizing with lowered threshold

     Davidson diagonalization with overlap
     ethr =  1.66E-05,  avg # of iterations =  3.5

     total cpu time spent up to now is       11.9 secs

     total energy              =    -135.43443438 Ry
     Harris-Foulkes estimate   =    -135.43583761 Ry
     estimated scf accuracy    <       0.00234429 Ry

     iteration #  2     ecut=    70.00 Ry     beta= 0.70
     Davidson diagonalization with overlap
     ethr =  1.67E-05,  avg # of iterations =  2.1

     total cpu time spent up to now is       16.1 secs

     total energy              =    -135.43490772 Ry
     Harris-Foulkes estimate   =    -135.43502456 Ry
     estimated scf accuracy    <       0.00020596 Ry

     iteration #  3     ecut=    70.00 Ry     beta= 0.70
     Davidson diagonalization with overlap
     ethr =  1.47E-06,  avg # of iterations =  2.2

     total cpu time spent up to now is       20.2 secs

     total energy              =    -135.43495044 Ry
     Harris-Foulkes estimate   =    -135.43495149 Ry
     estimated scf accuracy    <       0.00000977 Ry

     iteration #  4     ecut=    70.00 Ry     beta= 0.70
     Davidson diagonalization with overlap
     ethr =  6.98E-08,  avg # of iterations =  2.0

     total cpu time spent up to now is       23.9 secs

     total energy              =    -135.43495163 Ry
     Harris-Foulkes estimate   =    -135.43495156 Ry
     estimated scf accuracy    <       0.00000010 Ry

     iteration #  5     ecut=    70.00 Ry     beta= 0.70
     Davidson diagonalization with overlap
     ethr =  7.01E-10,  avg # of iterations =  2.1

     total cpu time spent up to now is       28.2 secs

     total energy              =    -135.43495165 Ry
     Harris-Foulkes estimate   =    -135.43495166 Ry
     estimated scf accuracy    <       0.00000001 Ry

     iteration #  6     ecut=    70.00 Ry     beta= 0.70
     Davidson diagonalization with overlap
     ethr =  9.01E-11,  avg # of iterations =  2.0

     total cpu time spent up to now is       33.2 secs

     End of self-consistent calculation

          k = 0.0000 0.0000 0.0000 (  1917 PWs)   bands (ev):

    -5.2313  -5.2313  -5.2313  -5.0722  -5.0722  -0.1810  19.6444  19.6444
    19.6444  21.9773  23.7520

          k =-0.0833 0.0833-0.0833 (  1947 PWs)   bands (ev):

    -5.2320  -5.2202  -5.2202  -5.0731  -5.0731  -0.0413  18.0456  19.4656
    19.4656  21.6792  24.3723

          k =-0.1667 0.1667-0.1667 (  1940 PWs)   bands (ev):

    -5.2355  -5.1981  -5.1981  -5.0663  -5.0663   0.3791  15.3539  19.0395
    19.0395  21.3615  24.9124

          k =-0.2500 0.2500-0.2500 (  1949 PWs)   bands (ev):

    -5.2438  -5.1914  -5.1914  -5.0328  -5.0328   1.0770  12.7001  18.5471
    18.5471  21.1643  23.7901

          k =-0.3333 0.3333-0.3333 (  1940 PWs)   bands (ev):

    -5.2560  -5.2021  -5.2021  -4.9805  -4.9805   2.0232  10.3064  18.1143
    18.1143  21.1156  22.8190

          k =-0.4167 0.4167-0.4167 (  1937 PWs)   bands (ev):

    -5.2671  -5.2146  -5.2146  -4.9371  -4.9371   3.0875   8.3597  17.8214
    17.8214  21.2202  22.1003

          k = 0.5000-0.5000 0.5000 (  1946 PWs)   bands (ev):

    -5.2717  -5.2197  -5.2197  -4.9205  -4.9205   3.7016   7.4495  17.7180
    17.7180  21.3862  21.7300

          k = 0.0000 0.1667 0.0000 (  1941 PWs)   bands (ev):

    -5.2441  -5.2095  -5.2095  -5.0856  -5.0630   0.0052  18.5523  18.8536
    18.8536  21.3716  24.5244

          k =-0.0833 0.2500-0.0833 (  1944 PWs)   bands (ev):

    -5.2517  -5.1864  -5.1840  -5.0958  -5.0507   0.3319  16.2625  18.2028
    18.7484  21.3975  23.4606

          k =-0.1667 0.3333-0.1667 (  1938 PWs)   bands (ev):

    -5.2537  -5.1789  -5.1696  -5.0808  -5.0194   0.9378  13.6216  17.6593
    18.2757  21.4467  23.0787

          k =-0.2500 0.4167-0.2500 (  1941 PWs)   bands (ev):

    -5.2567  -5.1934  -5.1761  -5.0342  -4.9715   1.8045  11.1597  17.2986
    17.6669  20.9584  23.2383

          k =-0.3333 0.5000-0.3333 (  1939 PWs)   bands (ev):

    -5.2604  -5.2105  -5.1899  -4.9823  -4.9318   2.8497   9.0582  17.0734
    17.1662  20.6431  23.0932

          k = 0.5833-0.4167 0.5833 (  1941 PWs)   bands (ev):

    -5.2610  -5.2204  -5.1999  -4.9456  -4.9193   3.7146   7.7092  16.6072
    17.2873  20.6181  22.7863

          k = 0.5000-0.3333 0.5000 (  1939 PWs)   bands (ev):

    -5.2563  -5.2191  -5.2005  -4.9404  -4.9359   3.4958   8.0270  16.3454
    17.6609  20.8649  22.5336

          k = 0.4167-0.2500 0.4167 (  1936 PWs)   bands (ev):

    -5.2489  -5.2073  -5.1915  -4.9893  -4.9552   2.4917   9.7098  16.3228
    18.2473  21.3377  22.4519

          k = 0.3333-0.1667 0.3333 (  1938 PWs)   bands (ev):

    -5.2423  -5.1920  -5.1786  -5.0487  -4.9940   1.4890  11.9503  16.5458
    18.9442  21.8368  22.7318

          k = 0.2500-0.0833 0.2500 (  1942 PWs)   bands (ev):

    -5.2389  -5.1857  -5.1809  -5.0869  -5.0345   0.7054  14.4645  17.0197
    19.5505  22.0182  23.6051

          k = 0.1667-0.0000 0.1667 (  1945 PWs)   bands (ev):

    -5.2368  -5.2061  -5.1987  -5.0855  -5.0599   0.1920  16.8461  17.9296
    19.7714  21.8605  24.3184

          k = 0.0000 0.3333 0.0000 (  1960 PWs)   bands (ev):

    -5.2788  -5.1487  -5.1487  -5.1250  -5.0378   0.5647  16.5946  17.3908
    17.3908  20.4331  21.9262

          k =-0.0833 0.4167-0.0833 (  1955 PWs)   bands (ev):

    -5.2917  -5.1568  -5.1200  -5.1035  -5.0115   1.0765  14.5113  16.7468
    16.9937  20.4387  21.1891

          k =-0.1667 0.5000-0.1667 (  1943 PWs)   bands (ev):

    -5.2899  -5.1789  -5.1190  -5.0656  -4.9655   1.8536  12.1368  16.2402
    16.3388  19.9388  22.4281

          k =-0.2500 0.5833-0.2500 (  1943 PWs)   bands (ev):

    -5.2824  -5.1892  -5.1318  -5.0325  -4.9267   2.8377  10.0003  15.4011
    16.2064  19.6435  24.1933

          k = 0.6667-0.3333 0.6667 (  1942 PWs)   bands (ev):

    -5.2727  -5.1915  -5.1451  -5.0034  -4.9160   3.7996   8.4130  14.6891
    16.3708  19.6432  24.6587

          k = 0.5833-0.2500 0.5833 (  1948 PWs)   bands (ev):

    -5.2572  -5.1942  -5.1518  -4.9819  -4.9404   3.9929   8.1439  14.2062
    16.8312  19.9108  24.2233

          k = 0.5000-0.1667 0.5000 (  1943 PWs)   bands (ev):

    -5.2353  -5.2017  -5.1485  -4.9939  -4.9738   3.1697   9.4340  14.0094
    17.5547  20.4382  23.9007

          k = 0.4167-0.0833 0.4167 (  1939 PWs)   bands (ev):

    -5.2201  -5.2056  -5.1362  -5.0618  -4.9815   2.1571  11.3973  14.1627
    18.4495  21.2277  23.6387

          k = 0.3333 0.0000 0.3333 (  1935 PWs)   bands (ev):

    -5.2320  -5.1892  -5.1384  -5.1052  -5.0034   1.3061  13.3378  14.9735
    19.2799  22.2747  23.0776

          k = 0.0000 0.5000 0.0000 (  1964 PWs)   bands (ev):

    -5.3260  -5.1852  -5.0628  -5.0628  -5.0030   1.4930  14.3569  16.0010
    16.0010  19.6531  19.7167

          k =-0.0833 0.5833-0.0833 (  1945 PWs)   bands (ev):

    -5.3379  -5.2127  -5.0446  -5.0248  -4.9646   2.1754  12.7160  15.1364
    15.5056  19.1202  20.1614

          k =-0.1667 0.6667-0.1667 (  1936 PWs)   bands (ev):

    -5.3282  -5.2189  -5.0548  -5.0093  -4.9229   3.0767  10.8728  13.9720
    15.3057  18.8758  21.7933

          k = 0.7500-0.2500 0.7500 (  1941 PWs)   bands (ev):

    -5.3106  -5.1931  -5.0695  -5.0174  -4.9111   4.0323   9.3292  12.9530
    15.4233  18.8835  23.8979

          k = 0.6667-0.1667 0.6667 (  1944 PWs)   bands (ev):

    -5.2898  -5.1498  -5.0816  -5.0377  -4.9355   4.5048   8.7131  12.2229
    15.8573  19.1228  26.1443

          k = 0.5833-0.0833 0.5833 (  1941 PWs)   bands (ev):

    -5.2631  -5.1410  -5.0879  -5.0324  -4.9888   3.9741   9.5266  11.8768
    16.5772  19.5926  25.8252

          k = 0.5000 0.0000 0.5000 (  1947 PWs)   bands (ev):

    -5.2334  -5.1782  -5.0940  -5.0491  -4.9990   3.0337  10.7939  12.3166
    17.5049  20.2976  25.1427

          k = 0.0000 0.6667 0.0000 (  1948 PWs)   bands (ev):

    -5.3728  -5.2511  -4.9738  -4.9738  -4.9680   2.7599  11.9471  14.9136
    14.9136  18.3313  19.0986

          k =-0.0833 0.7500-0.0833 (  1943 PWs)   bands (ev):

    -5.3779  -5.2706  -4.9804  -4.9485  -4.9203   3.5628  10.6950  13.8344
    14.6206  18.2483  19.6323

          k = 0.8333-0.1667 0.8333 (  1941 PWs)   bands (ev):

    -5.3572  -5.2573  -4.9945  -4.9583  -4.9038   4.4395   9.6613  12.3007
    14.6546  18.3259  21.3834

          k = 0.7500-0.0833 0.7500 (  1927 PWs)   bands (ev):

    -5.3287  -5.2009  -5.0115  -5.0007  -4.9235   4.9767   9.3316  10.9797
    15.0173  18.5457  23.6407

          k = 0.6667-0.0000 0.6667 (  1935 PWs)   bands (ev):

    -5.2971  -5.1188  -5.0647  -5.0374  -4.9635   4.7175   9.9756  10.2382
    15.6809  18.9620  26.1512

          k = 0.0000 0.8333 0.0000 (  1956 PWs)   bands (ev):

    -5.4069  -5.3026  -4.9423  -4.9067  -4.9067   4.2440   9.6784  14.2269
    14.2269  17.6085  18.7710

          k = 0.9167-0.0833 0.9167 (  1948 PWs)   bands (ev):

    -5.4008  -5.3059  -4.9458  -4.9028  -4.8912   4.9405   8.8935  13.2320
    14.1617  17.8479  19.3802

          k = 0.8333 0.0000 0.8333 (  1938 PWs)   bands (ev):

    -5.3681  -5.2721  -4.9657  -4.9384  -4.9032   5.2355   8.8964  11.7460
    14.4326  18.1547  21.2452

          k = 0.0000-1.0000 0.0000 (  1964 PWs)   bands (ev):

    -5.4194  -5.3219  -4.9329  -4.8817  -4.8817   5.2166   8.4289  13.9923
    13.9923  17.3857  18.6629

          k =-0.1667 0.3333 0.0000 (  1950 PWs)   bands (ev):

    -5.2611  -5.1695  -5.1515  -5.1101  -5.0278   0.7515  15.0336  16.4543
    18.7766  21.5297  22.3228

          k =-0.2500 0.4167-0.0833 (  1941 PWs)   bands (ev):

    -5.2584  -5.1792  -5.1372  -5.0881  -4.9921   1.4440  12.8568  15.5610
    18.2297  21.3610  22.7261

          k =-0.3333 0.5000-0.1667 (  1938 PWs)   bands (ev):

    -5.2520  -5.1996  -5.1474  -5.0370  -4.9556   2.3739  10.6051  15.1925
    17.4361  20.9181  23.2725

          k = 0.5833-0.4167 0.7500 (  1938 PWs)   bands (ev):

    -5.2462  -5.2190  -5.1560  -4.9926  -4.9323   3.4028   8.7453  15.0709
    16.7879  20.6775  22.9951

          k = 0.5000-0.3333 0.6667 (  1952 PWs)   bands (ev):

    -5.2412  -5.2299  -5.1590  -4.9736  -4.9261   3.9804   7.8868  15.0626
    16.5285  20.6018  22.8601

          k =-0.1667 0.5000 0.0000 (  1945 PWs)   bands (ev):

    -5.3027  -5.1805  -5.0970  -5.0653  -4.9831   1.6744  13.3386  15.1186
    16.7200  20.4609  20.7778

          k =-0.2500 0.5833-0.0833 (  1939 PWs)   bands (ev):

    -5.2934  -5.1973  -5.0999  -5.0302  -4.9506   2.5169  11.5067  14.2360
    15.9578  20.2288  22.1501

          k = 0.6667-0.3333 0.8333 (  1940 PWs)   bands (ev):

    -5.2775  -5.1974  -5.1041  -5.0209  -4.9269   3.5049   9.6876  13.7273
    15.3978  20.1568  23.8986

          k = 0.5833-0.2500 0.7500 (  1942 PWs)   bands (ev):

    -5.2627  -5.1928  -5.0972  -5.0280  -4.9248   4.2741   8.5305  13.2813
    15.3551  20.2991  23.9459

          k = 0.5000-0.1667 0.6667 (  1944 PWs)   bands (ev):

    -5.2442  -5.1983  -5.0980  -5.0253  -4.9469   4.0712   8.8405  12.9719
    15.7807  20.6463  23.6382

          k = 0.4167-0.0833 0.5833 (  1941 PWs)   bands (ev):

    -5.2211  -5.2157  -5.1103  -5.0266  -4.9726   3.1552  10.3133  12.9683
    16.5364  21.1590  23.4947

          k = 0.3333 0.0000 0.5000 (  1937 PWs)   bands (ev):

    -5.2416  -5.1968  -5.1138  -5.0684  -4.9771   2.2045  11.9248  13.6501
    17.4724  21.6462  22.9624

          k =-0.1667 0.6667-0.0000 (  1944 PWs)   bands (ev):

    -5.3448  -5.2369  -5.0359  -4.9753  -4.9436   2.9217  11.5889  14.0837
    14.8016  19.3552  20.1763

          k = 0.7500-0.2500 0.9167 (  1945 PWs)   bands (ev):

    -5.3260  -5.2371  -5.0467  -4.9668  -4.9213   3.8298  10.3135  12.9047
    14.3005  19.5554  21.6401

          k = 0.6667-0.1667 0.8333 (  1929 PWs)   bands (ev):

    -5.3012  -5.1995  -5.0612  -5.0019  -4.9141   4.6328   9.3420  11.8420
    14.3584  19.7326  23.7849

          k = 0.5833-0.0833 0.7500 (  1934 PWs)   bands (ev):

    -5.2769  -5.1442  -5.0821  -5.0410  -4.9372   4.7294   9.3702  11.1463
    14.8138  20.0947  25.4082

          k = 0.5000 0.0000 0.6667 (  1940 PWs)   bands (ev):

    -5.2490  -5.1600  -5.0955  -5.0220  -4.9799   4.0417  10.1165  11.2872
    15.5744  20.6350  25.0020

          k = 0.8333-0.1667 1.0000 (  1947 PWs)   bands (ev):

    -5.3757  -5.2837  -4.9784  -4.9228  -4.9071   4.3522   9.7370  13.4306
    13.6663  18.7620  19.8106

          k = 0.7500-0.0833 0.9167 (  1936 PWs)   bands (ev):

    -5.3453  -5.2643  -4.9925  -4.9578  -4.8941   5.0338   9.2263  11.9488
    13.6503  19.2364  21.3724

          k = 0.6667 0.0000 0.8333 (  1929 PWs)   bands (ev):

    -5.3107  -5.2022  -5.0321  -5.0045  -4.9100   5.1645   9.5740  10.6261
    14.0783  19.5944  23.6733

          k =-0.1667-1.0000-0.0000 (  1940 PWs)   bands (ev):

    -5.3870  -5.3015  -4.9500  -4.9218  -4.8816   5.2442   8.6637  13.2073
    13.3157  18.5737  19.6890

          k = 0.6667-0.3333 1.0000 (  1930 PWs)   bands (ev):

    -5.2672  -5.2139  -5.1024  -4.9785  -4.9635   3.3798  10.7914  12.6332
    15.0075  21.3558  22.3783

          k = 0.5833-0.2500 0.9167 (  1933 PWs)   bands (ev):

    -5.2398  -5.2100  -5.1022  -5.0064  -4.9346   4.2802   9.7154  11.9890
    14.2402  21.5670  23.5588

          k = 0.5000-0.1667 0.8333 (  1930 PWs)   bands (ev):

    -5.2386  -5.1932  -5.0884  -5.0418  -4.9193   4.7416   9.1116  11.8826
    13.9448  21.5746  23.5915

          k = 0.6667-0.1667 1.0000 (  1946 PWs)   bands (ev):

    -5.2883  -5.2411  -5.0620  -4.9722  -4.9082   4.6317   9.8571  11.9940
    13.1324  21.0728  21.9859

          k = 0.5833-0.0833 0.9167 (  1929 PWs)   bands (ev):

    -5.2545  -5.2025  -5.0973  -5.0126  -4.8947   5.1332   9.7614  11.0073
    12.8759  21.6293  23.8489

          k = 0.5000 0.0000 0.8333 (  1932 PWs)   bands (ev):

    -5.2385  -5.1634  -5.1358  -5.0224  -4.9095   4.9527  10.0562  10.6388
    13.3371  21.9587  24.7886

          k =-0.3333-1.0000 0.0000 (  1940 PWs)   bands (ev):

    -5.2961  -5.2532  -5.0283  -4.9922  -4.8817   5.3021   9.3465  11.7758
    12.4436  20.9632  21.8526

          k =-0.5000-1.0000 0.0000 (  1912 PWs)   bands (ev):

    -5.2214  -5.1659  -5.1659  -5.0206  -4.8815   5.3326  10.4173  10.4173
    12.1080  23.0928  24.4569

     the Fermi energy is    11.9218 ev

!    total energy              =    -135.43495166 Ry
     Harris-Foulkes estimate   =    -135.43495166 Ry
     estimated scf accuracy    <          6.2E-10 Ry

     The total energy is the sum of the following terms:

     one-electron contribution =     -31.47609767 Ry
     hartree contribution      =      26.10277787 Ry
     xc contribution           =     -32.62495229 Ry
     ewald contribution        =     -97.43857717 Ry
     smearing contrib. (-TS)   =       0.00189761 Ry

     convergence has been achieved in   6 iterations

     Writing output data file Pb.save/

     init_run     :      2.14s CPU      2.20s WALL (       1 calls)
     electrons    :     29.53s CPU     30.23s WALL (       1 calls)

     Called by init_run:
     wfcinit      :      1.18s CPU      1.18s WALL (       1 calls)
     potinit      :      0.07s CPU      0.08s WALL (       1 calls)
     hinit0       :      0.77s CPU      0.77s WALL (       1 calls)

     Called by electrons:
     c_bands      :     24.11s CPU     24.21s WALL (       7 calls)
     sum_band     :      4.50s CPU      4.86s WALL (       7 calls)
     v_of_rho     :      0.40s CPU      0.41s WALL (       7 calls)
     newd         :      0.58s CPU      0.87s WALL (       7 calls)
     mix_rho      :      0.03s CPU      0.03s WALL (       7 calls)

     Called by c_bands:
     init_us_2    :      0.54s CPU      0.54s WALL (    1080 calls)
     cegterg      :     22.86s CPU     22.95s WALL (     504 calls)

     Called by sum_band:
     sum_band:bec :      0.00s CPU      0.00s WALL (     504 calls)
     addusdens    :      0.68s CPU      1.02s WALL (       7 calls)

     Called by *egterg:
     h_psi        :     18.47s CPU     18.53s WALL (    1877 calls)
     s_psi        :      0.92s CPU      0.93s WALL (    1877 calls)
     g_psi        :      0.12s CPU      0.12s WALL (    1301 calls)
     cdiaghg      :      0.38s CPU      0.39s WALL (    1733 calls)

     Called by h_psi:
     h_psi:pot    :     18.41s CPU     18.47s WALL (    1877 calls)
     h_psi:calbec :      0.99s CPU      0.99s WALL (    1877 calls)
     vloc_psi     :     16.48s CPU     16.53s WALL (    1877 calls)
     add_vuspsi   :      0.93s CPU      0.94s WALL (    1877 calls)

     General routines
     calbec       :      1.32s CPU      1.32s WALL (    2381 calls)
     fft          :      0.19s CPU      0.19s WALL (      90 calls)
     ffts         :      0.02s CPU      0.02s WALL (      14 calls)
     fftw         :     17.15s CPU     17.21s WALL (   35894 calls)
     interpolate  :      0.03s CPU      0.03s WALL (       7 calls)

     Parallel routines

     PWSCF        :     32.47s CPU     33.25s WALL


   This run was terminated on:  20: 1:13  30Jun2021            

=------------------------------------------------------------------------------=
   JOB DONE.
=------------------------------------------------------------------------------=
