
     Program PWSCF v.6.4.1 starts on 30Jun2021 at 20: 9: 4 

     This program is part of the open-source Quantum ESPRESSO suite
     for quantum simulation of materials; please cite
         "P. Giannozzi et al., J. Phys.:Condens. Matter 21 395502 (2009);
         "P. Giannozzi et al., J. Phys.:Condens. Matter 29 465901 (2017);
          URL http://www.quantum-espresso.org", 
     in publications or presentations arising from this work. More details at
     http://www.quantum-espresso.org/quote

     Parallel version (MPI), running on     1 processors

     MPI processes distributed on     1 nodes
     Waiting for input...
     Reading input from standard input

     Current dimensions of program PWSCF are:
     Max number of different atomic species (ntypx) = 10
     Max number of k-points (npk) =  40000
     Max angular momentum in pseudopotentials (lmaxx) =  3
               file Pb.pbe-dn-rrkjus_psl.1.0.0.UPF: wavefunction(s)  6S 5D renormalized

     Subspace diagonalization in iterative solution of the eigenvalue problem:
     a serial algorithm will be used


     G-vector sticks info
     --------------------
     sticks:   dense  smooth     PW     G-vecs:    dense   smooth      PW
     Sum        1639     823    253                43895    15593    2685


     Title: 
     Lead                                                                       


     bravais-lattice index     =            2
     lattice parameter (alat)  =       9.2226  a.u.
     unit-cell volume          =     196.1075 (a.u.)^3
     number of atoms/cell      =            1
     number of atomic types    =            1
     number of electrons       =        14.00
     number of Kohn-Sham states=           11
     kinetic-energy cutoff     =      70.0000  Ry
     charge density cutoff     =     560.0000  Ry
     convergence threshold     =      1.0E-09
     mixing beta               =       0.7000
     number of iterations used =            8  plain     mixing
     Exchange-correlation      = PBE ( 1  4  3  4 0 0)

     celldm(1)=   9.222558  celldm(2)=   0.000000  celldm(3)=   0.000000
     celldm(4)=   0.000000  celldm(5)=   0.000000  celldm(6)=   0.000000

     crystal axes: (cart. coord. in units of alat)
               a(1) = (  -0.500000   0.000000   0.500000 )  
               a(2) = (   0.000000   0.500000   0.500000 )  
               a(3) = (  -0.500000   0.500000   0.000000 )  

     reciprocal axes: (cart. coord. in units 2 pi/alat)
               b(1) = ( -1.000000 -1.000000  1.000000 )  
               b(2) = (  1.000000  1.000000  1.000000 )  
               b(3) = ( -1.000000  1.000000 -1.000000 )  


     PseudoPot. # 1 for Pb read from file:
     /home/elena/qe-6.7/pseudo/Pb.pbe-dn-rrkjus_psl.1.0.0.UPF
     MD5 check sum: 1cf8f5e18580e6a90a35f98a53d336de
     Pseudo is Ultrasoft + core correction, Zval = 14.0
     Generated using "atomic" code by A. Dal Corso v.6.3
     Using radial grid of 1281 points,  6 beta functions with: 
                l(1) =   0
                l(2) =   0
                l(3) =   1
                l(4) =   1
                l(5) =   2
                l(6) =   2
     Q(r) pseudized with 0 coefficients 


     atomic species   valence    mass     pseudopotential
        Pb            14.00   207.20000     Pb( 1.00)

     48 Sym. Ops., with inversion, found



   Cartesian axes

     site n.     atom                  positions (alat units)
         1           Pb  tau(   1) = (   0.0000000   0.0000000   0.0000000  )

     number of k points=   104  Methfessel-Paxton smearing, width (Ry)=  0.0700

     Number of k-points >= 100: set verbosity='high' to print them.

     Dense  grid:    43895 G-vectors     FFT dimensions: (  50,  50,  50)

     Smooth grid:    15593 G-vectors     FFT dimensions: (  36,  36,  36)

     Estimated max dynamical RAM per process >     189.38 MB

     Initial potential from superposition of free atoms

     starting charge   13.99765, renormalised to   14.00000
     Starting wfcs are    9 randomized atomic wfcs +    2 random wfcs

     total cpu time spent up to now is        3.8 secs

     Self-consistent Calculation

     iteration #  1     ecut=    70.00 Ry     beta= 0.70
     Davidson diagonalization with overlap
     ethr =  1.00E-02,  avg # of iterations =  4.1

     Threshold (ethr) on eigenvalues was too large:
     Diagonalizing with lowered threshold

     Davidson diagonalization with overlap
     ethr =  1.65E-05,  avg # of iterations =  3.8

     total cpu time spent up to now is       17.3 secs

     total energy              =    -135.43480054 Ry
     Harris-Foulkes estimate   =    -135.43619343 Ry
     estimated scf accuracy    <       0.00232623 Ry

     iteration #  2     ecut=    70.00 Ry     beta= 0.70
     Davidson diagonalization with overlap
     ethr =  1.66E-05,  avg # of iterations =  2.1

     total cpu time spent up to now is       23.8 secs

     total energy              =    -135.43527097 Ry
     Harris-Foulkes estimate   =    -135.43538729 Ry
     estimated scf accuracy    <       0.00020482 Ry

     iteration #  3     ecut=    70.00 Ry     beta= 0.70
     Davidson diagonalization with overlap
     ethr =  1.46E-06,  avg # of iterations =  2.3

     total cpu time spent up to now is       30.0 secs

     total energy              =    -135.43531342 Ry
     Harris-Foulkes estimate   =    -135.43531447 Ry
     estimated scf accuracy    <       0.00000970 Ry

     iteration #  4     ecut=    70.00 Ry     beta= 0.70
     Davidson diagonalization with overlap
     ethr =  6.93E-08,  avg # of iterations =  1.9

     total cpu time spent up to now is       35.5 secs

     total energy              =    -135.43531459 Ry
     Harris-Foulkes estimate   =    -135.43531453 Ry
     estimated scf accuracy    <       0.00000010 Ry

     iteration #  5     ecut=    70.00 Ry     beta= 0.70
     Davidson diagonalization with overlap
     ethr =  7.04E-10,  avg # of iterations =  2.2

     total cpu time spent up to now is       41.7 secs

     total energy              =    -135.43531462 Ry
     Harris-Foulkes estimate   =    -135.43531463 Ry
     estimated scf accuracy    <       0.00000001 Ry

     iteration #  6     ecut=    70.00 Ry     beta= 0.70
     Davidson diagonalization with overlap
     ethr =  9.12E-11,  avg # of iterations =  2.0

     total cpu time spent up to now is       47.6 secs

     End of self-consistent calculation

     Number of k-points >= 100: set verbosity='high' to print the bands.

     the Fermi energy is    11.9299 ev

!    total energy              =    -135.43531462 Ry
     Harris-Foulkes estimate   =    -135.43531463 Ry
     estimated scf accuracy    <          6.2E-10 Ry

     The total energy is the sum of the following terms:

     one-electron contribution =     -31.47627627 Ry
     hartree contribution      =      26.10419942 Ry
     xc contribution           =     -32.62513768 Ry
     ewald contribution        =     -97.43857717 Ry
     smearing contrib. (-TS)   =       0.00047707 Ry

     convergence has been achieved in   6 iterations

     Writing output data file Pb.save/

     init_run     :      2.88s CPU      2.97s WALL (       1 calls)
     electrons    :     43.09s CPU     43.87s WALL (       1 calls)

     Called by init_run:
     wfcinit      :      1.84s CPU      1.88s WALL (       1 calls)
     potinit      :      0.08s CPU      0.08s WALL (       1 calls)
     hinit0       :      0.83s CPU      0.83s WALL (       1 calls)

     Called by electrons:
     c_bands      :     35.79s CPU     35.97s WALL (       7 calls)
     sum_band     :      6.37s CPU      6.68s WALL (       7 calls)
     v_of_rho     :      0.41s CPU      0.43s WALL (       7 calls)
     newd         :      0.60s CPU      0.91s WALL (       7 calls)
     mix_rho      :      0.04s CPU      0.04s WALL (       7 calls)

     Called by c_bands:
     init_us_2    :      0.81s CPU      0.81s WALL (    1560 calls)
     cegterg      :     33.94s CPU     34.11s WALL (     728 calls)

     Called by sum_band:
     sum_band:bec :      0.01s CPU      0.01s WALL (     728 calls)
     addusdens    :      0.70s CPU      0.99s WALL (       7 calls)

     Called by *egterg:
     h_psi        :     27.37s CPU     27.53s WALL (    2739 calls)
     s_psi        :      1.37s CPU      1.38s WALL (    2739 calls)
     g_psi        :      0.18s CPU      0.18s WALL (    1907 calls)
     cdiaghg      :      0.60s CPU      0.60s WALL (    2531 calls)

     Called by h_psi:
     h_psi:pot    :     27.28s CPU     27.44s WALL (    2739 calls)
     h_psi:calbec :      1.52s CPU      1.53s WALL (    2739 calls)
     vloc_psi     :     24.35s CPU     24.49s WALL (    2739 calls)
     add_vuspsi   :      1.40s CPU      1.41s WALL (    2739 calls)

     General routines
     calbec       :      2.04s CPU      2.05s WALL (    3467 calls)
     fft          :      0.20s CPU      0.20s WALL (      90 calls)
     ffts         :      0.02s CPU      0.02s WALL (      14 calls)
     fftw         :     25.23s CPU     25.38s WALL (   51832 calls)
     interpolate  :      0.03s CPU      0.03s WALL (       7 calls)

     Parallel routines

     PWSCF        :     46.79s CPU     47.69s WALL


   This run was terminated on:  20: 9:52  30Jun2021            

=------------------------------------------------------------------------------=
   JOB DONE.
=------------------------------------------------------------------------------=
