
     Program PWSCF v.6.4.1 starts on 30Jun2021 at 20: 6: 7 

     This program is part of the open-source Quantum ESPRESSO suite
     for quantum simulation of materials; please cite
         "P. Giannozzi et al., J. Phys.:Condens. Matter 21 395502 (2009);
         "P. Giannozzi et al., J. Phys.:Condens. Matter 29 465901 (2017);
          URL http://www.quantum-espresso.org", 
     in publications or presentations arising from this work. More details at
     http://www.quantum-espresso.org/quote

     Parallel version (MPI), running on     1 processors

     MPI processes distributed on     1 nodes
     Waiting for input...
     Reading input from standard input

     Current dimensions of program PWSCF are:
     Max number of different atomic species (ntypx) = 10
     Max number of k-points (npk) =  40000
     Max angular momentum in pseudopotentials (lmaxx) =  3
               file Pb.pbe-dn-rrkjus_psl.1.0.0.UPF: wavefunction(s)  6S 5D renormalized

     Subspace diagonalization in iterative solution of the eigenvalue problem:
     a serial algorithm will be used


     G-vector sticks info
     --------------------
     sticks:   dense  smooth     PW     G-vecs:    dense   smooth      PW
     Sum        1639     823    253                43895    15593    2685


     Title: 
     Lead                                                                       


     bravais-lattice index     =            2
     lattice parameter (alat)  =       9.2226  a.u.
     unit-cell volume          =     196.1075 (a.u.)^3
     number of atoms/cell      =            1
     number of atomic types    =            1
     number of electrons       =        14.00
     number of Kohn-Sham states=           11
     kinetic-energy cutoff     =      70.0000  Ry
     charge density cutoff     =     560.0000  Ry
     convergence threshold     =      1.0E-09
     mixing beta               =       0.7000
     number of iterations used =            8  plain     mixing
     Exchange-correlation      = PBE ( 1  4  3  4 0 0)

     celldm(1)=   9.222558  celldm(2)=   0.000000  celldm(3)=   0.000000
     celldm(4)=   0.000000  celldm(5)=   0.000000  celldm(6)=   0.000000

     crystal axes: (cart. coord. in units of alat)
               a(1) = (  -0.500000   0.000000   0.500000 )  
               a(2) = (   0.000000   0.500000   0.500000 )  
               a(3) = (  -0.500000   0.500000   0.000000 )  

     reciprocal axes: (cart. coord. in units 2 pi/alat)
               b(1) = ( -1.000000 -1.000000  1.000000 )  
               b(2) = (  1.000000  1.000000  1.000000 )  
               b(3) = ( -1.000000  1.000000 -1.000000 )  


     PseudoPot. # 1 for Pb read from file:
     /home/elena/qe-6.7/pseudo/Pb.pbe-dn-rrkjus_psl.1.0.0.UPF
     MD5 check sum: 1cf8f5e18580e6a90a35f98a53d336de
     Pseudo is Ultrasoft + core correction, Zval = 14.0
     Generated using "atomic" code by A. Dal Corso v.6.3
     Using radial grid of 1281 points,  6 beta functions with: 
                l(1) =   0
                l(2) =   0
                l(3) =   1
                l(4) =   1
                l(5) =   2
                l(6) =   2
     Q(r) pseudized with 0 coefficients 


     atomic species   valence    mass     pseudopotential
        Pb            14.00   207.20000     Pb( 1.00)

     48 Sym. Ops., with inversion, found



   Cartesian axes

     site n.     atom                  positions (alat units)
         1           Pb  tau(   1) = (   0.0000000   0.0000000   0.0000000  )

     number of k points=    72  Methfessel-Paxton smearing, width (Ry)=  0.0100
                       cart. coord. in units 2pi/alat
        k(    1) = (   0.0000000   0.0000000   0.0000000), wk =   0.0011574
        k(    2) = (  -0.0833333   0.0833333  -0.0833333), wk =   0.0092593
        k(    3) = (  -0.1666667   0.1666667  -0.1666667), wk =   0.0092593
        k(    4) = (  -0.2500000   0.2500000  -0.2500000), wk =   0.0092593
        k(    5) = (  -0.3333333   0.3333333  -0.3333333), wk =   0.0092593
        k(    6) = (  -0.4166667   0.4166667  -0.4166667), wk =   0.0092593
        k(    7) = (   0.5000000  -0.5000000   0.5000000), wk =   0.0046296
        k(    8) = (   0.0000000   0.1666667   0.0000000), wk =   0.0069444
        k(    9) = (  -0.0833333   0.2500000  -0.0833333), wk =   0.0277778
        k(   10) = (  -0.1666667   0.3333333  -0.1666667), wk =   0.0277778
        k(   11) = (  -0.2500000   0.4166667  -0.2500000), wk =   0.0277778
        k(   12) = (  -0.3333333   0.5000000  -0.3333333), wk =   0.0277778
        k(   13) = (   0.5833333  -0.4166667   0.5833333), wk =   0.0277778
        k(   14) = (   0.5000000  -0.3333333   0.5000000), wk =   0.0277778
        k(   15) = (   0.4166667  -0.2500000   0.4166667), wk =   0.0277778
        k(   16) = (   0.3333333  -0.1666667   0.3333333), wk =   0.0277778
        k(   17) = (   0.2500000  -0.0833333   0.2500000), wk =   0.0277778
        k(   18) = (   0.1666667  -0.0000000   0.1666667), wk =   0.0138889
        k(   19) = (   0.0000000   0.3333333   0.0000000), wk =   0.0069444
        k(   20) = (  -0.0833333   0.4166667  -0.0833333), wk =   0.0277778
        k(   21) = (  -0.1666667   0.5000000  -0.1666667), wk =   0.0277778
        k(   22) = (  -0.2500000   0.5833333  -0.2500000), wk =   0.0277778
        k(   23) = (   0.6666667  -0.3333333   0.6666667), wk =   0.0277778
        k(   24) = (   0.5833333  -0.2500000   0.5833333), wk =   0.0277778
        k(   25) = (   0.5000000  -0.1666667   0.5000000), wk =   0.0277778
        k(   26) = (   0.4166667  -0.0833333   0.4166667), wk =   0.0277778
        k(   27) = (   0.3333333   0.0000000   0.3333333), wk =   0.0138889
        k(   28) = (   0.0000000   0.5000000   0.0000000), wk =   0.0069444
        k(   29) = (  -0.0833333   0.5833333  -0.0833333), wk =   0.0277778
        k(   30) = (  -0.1666667   0.6666667  -0.1666667), wk =   0.0277778
        k(   31) = (   0.7500000  -0.2500000   0.7500000), wk =   0.0277778
        k(   32) = (   0.6666667  -0.1666667   0.6666667), wk =   0.0277778
        k(   33) = (   0.5833333  -0.0833333   0.5833333), wk =   0.0277778
        k(   34) = (   0.5000000   0.0000000   0.5000000), wk =   0.0138889
        k(   35) = (   0.0000000   0.6666667   0.0000000), wk =   0.0069444
        k(   36) = (  -0.0833333   0.7500000  -0.0833333), wk =   0.0277778
        k(   37) = (   0.8333333  -0.1666667   0.8333333), wk =   0.0277778
        k(   38) = (   0.7500000  -0.0833333   0.7500000), wk =   0.0277778
        k(   39) = (   0.6666667  -0.0000000   0.6666667), wk =   0.0138889
        k(   40) = (   0.0000000   0.8333333   0.0000000), wk =   0.0069444
        k(   41) = (   0.9166667  -0.0833333   0.9166667), wk =   0.0277778
        k(   42) = (   0.8333333   0.0000000   0.8333333), wk =   0.0138889
        k(   43) = (   0.0000000  -1.0000000   0.0000000), wk =   0.0034722
        k(   44) = (  -0.1666667   0.3333333   0.0000000), wk =   0.0277778
        k(   45) = (  -0.2500000   0.4166667  -0.0833333), wk =   0.0555556
        k(   46) = (  -0.3333333   0.5000000  -0.1666667), wk =   0.0555556
        k(   47) = (   0.5833333  -0.4166667   0.7500000), wk =   0.0555556
        k(   48) = (   0.5000000  -0.3333333   0.6666667), wk =   0.0277778
        k(   49) = (  -0.1666667   0.5000000   0.0000000), wk =   0.0277778
        k(   50) = (  -0.2500000   0.5833333  -0.0833333), wk =   0.0555556
        k(   51) = (   0.6666667  -0.3333333   0.8333333), wk =   0.0555556
        k(   52) = (   0.5833333  -0.2500000   0.7500000), wk =   0.0555556
        k(   53) = (   0.5000000  -0.1666667   0.6666667), wk =   0.0555556
        k(   54) = (   0.4166667  -0.0833333   0.5833333), wk =   0.0555556
        k(   55) = (   0.3333333   0.0000000   0.5000000), wk =   0.0277778
        k(   56) = (  -0.1666667   0.6666667  -0.0000000), wk =   0.0277778
        k(   57) = (   0.7500000  -0.2500000   0.9166667), wk =   0.0555556
        k(   58) = (   0.6666667  -0.1666667   0.8333333), wk =   0.0555556
        k(   59) = (   0.5833333  -0.0833333   0.7500000), wk =   0.0555556
        k(   60) = (   0.5000000   0.0000000   0.6666667), wk =   0.0277778
        k(   61) = (   0.8333333  -0.1666667   1.0000000), wk =   0.0277778
        k(   62) = (   0.7500000  -0.0833333   0.9166667), wk =   0.0555556
        k(   63) = (   0.6666667   0.0000000   0.8333333), wk =   0.0277778
        k(   64) = (  -0.1666667  -1.0000000  -0.0000000), wk =   0.0138889
        k(   65) = (   0.6666667  -0.3333333   1.0000000), wk =   0.0277778
        k(   66) = (   0.5833333  -0.2500000   0.9166667), wk =   0.0555556
        k(   67) = (   0.5000000  -0.1666667   0.8333333), wk =   0.0277778
        k(   68) = (   0.6666667  -0.1666667   1.0000000), wk =   0.0277778
        k(   69) = (   0.5833333  -0.0833333   0.9166667), wk =   0.0555556
        k(   70) = (   0.5000000   0.0000000   0.8333333), wk =   0.0277778
        k(   71) = (  -0.3333333  -1.0000000   0.0000000), wk =   0.0138889
        k(   72) = (  -0.5000000  -1.0000000   0.0000000), wk =   0.0069444

     Dense  grid:    43895 G-vectors     FFT dimensions: (  50,  50,  50)

     Smooth grid:    15593 G-vectors     FFT dimensions: (  36,  36,  36)

     Estimated max dynamical RAM per process >     178.96 MB

     Initial potential from superposition of free atoms

     starting charge   13.99765, renormalised to   14.00000
     Starting wfcs are    9 randomized atomic wfcs +    2 random wfcs

     total cpu time spent up to now is        3.2 secs

     Self-consistent Calculation

     iteration #  1     ecut=    70.00 Ry     beta= 0.70
     Davidson diagonalization with overlap
     ethr =  1.00E-02,  avg # of iterations =  4.2

     Threshold (ethr) on eigenvalues was too large:
     Diagonalizing with lowered threshold

     Davidson diagonalization with overlap
     ethr =  1.62E-05,  avg # of iterations =  3.4

     total cpu time spent up to now is       12.8 secs

     total energy              =    -135.43365646 Ry
     Harris-Foulkes estimate   =    -135.43502904 Ry
     estimated scf accuracy    <       0.00229238 Ry

     iteration #  2     ecut=    70.00 Ry     beta= 0.70
     Davidson diagonalization with overlap
     ethr =  1.64E-05,  avg # of iterations =  2.1

     total cpu time spent up to now is       17.1 secs

     total energy              =    -135.43412032 Ry
     Harris-Foulkes estimate   =    -135.43423585 Ry
     estimated scf accuracy    <       0.00020212 Ry

     iteration #  3     ecut=    70.00 Ry     beta= 0.70
     Davidson diagonalization with overlap
     ethr =  1.44E-06,  avg # of iterations =  2.2

     total cpu time spent up to now is       21.5 secs

     total energy              =    -135.43416261 Ry
     Harris-Foulkes estimate   =    -135.43416368 Ry
     estimated scf accuracy    <       0.00000967 Ry

     iteration #  4     ecut=    70.00 Ry     beta= 0.70
     Davidson diagonalization with overlap
     ethr =  6.91E-08,  avg # of iterations =  2.0

     total cpu time spent up to now is       25.3 secs

     total energy              =    -135.43416376 Ry
     Harris-Foulkes estimate   =    -135.43416370 Ry
     estimated scf accuracy    <       0.00000009 Ry

     iteration #  5     ecut=    70.00 Ry     beta= 0.70
     Davidson diagonalization with overlap
     ethr =  6.62E-10,  avg # of iterations =  2.1

     total cpu time spent up to now is       29.9 secs

     total energy              =    -135.43416379 Ry
     Harris-Foulkes estimate   =    -135.43416380 Ry
     estimated scf accuracy    <       0.00000001 Ry

     iteration #  6     ecut=    70.00 Ry     beta= 0.70
     Davidson diagonalization with overlap
     ethr =  8.19E-11,  avg # of iterations =  2.0

     total cpu time spent up to now is       34.4 secs

     End of self-consistent calculation

          k = 0.0000 0.0000 0.0000 (  1917 PWs)   bands (ev):

    -5.2265  -5.2265  -5.2265  -5.0675  -5.0675  -0.1794  19.6458  19.6458
    19.6458  21.9785  23.7543

          k =-0.0833 0.0833-0.0833 (  1947 PWs)   bands (ev):

    -5.2272  -5.2154  -5.2154  -5.0684  -5.0684  -0.0397  18.0471  19.4670
    19.4670  21.6806  24.3743

          k =-0.1667 0.1667-0.1667 (  1940 PWs)   bands (ev):

    -5.2307  -5.1933  -5.1933  -5.0615  -5.0615   0.3807  15.3554  19.0410
    19.0410  21.3630  24.9136

          k =-0.2500 0.2500-0.2500 (  1949 PWs)   bands (ev):

    -5.2391  -5.1866  -5.1866  -5.0280  -5.0280   1.0787  12.7016  18.5486
    18.5486  21.1658  23.7915

          k =-0.3333 0.3333-0.3333 (  1940 PWs)   bands (ev):

    -5.2513  -5.1973  -5.1973  -4.9757  -4.9757   2.0250  10.3078  18.1158
    18.1158  21.1171  22.8205

          k =-0.4167 0.4167-0.4167 (  1937 PWs)   bands (ev):

    -5.2623  -5.2099  -5.2099  -4.9322  -4.9322   3.0894   8.3609  17.8229
    17.8229  21.2216  22.1020

          k = 0.5000-0.5000 0.5000 (  1946 PWs)   bands (ev):

    -5.2669  -5.2150  -5.2150  -4.9156  -4.9156   3.7037   7.4506  17.7195
    17.7195  21.3872  21.7320

          k = 0.0000 0.1667 0.0000 (  1941 PWs)   bands (ev):

    -5.2394  -5.2047  -5.2047  -5.0808  -5.0583   0.0068  18.5540  18.8550
    18.8550  21.3729  24.5260

          k =-0.0833 0.2500-0.0833 (  1944 PWs)   bands (ev):

    -5.2469  -5.1816  -5.1792  -5.0911  -5.0459   0.3336  16.2640  18.2042
    18.7500  21.3989  23.4618

          k =-0.1667 0.3333-0.1667 (  1938 PWs)   bands (ev):

    -5.2489  -5.1741  -5.1648  -5.0760  -5.0146   0.9395  13.6231  17.6607
    18.2773  21.4480  23.0799

          k =-0.2500 0.4167-0.2500 (  1941 PWs)   bands (ev):

    -5.2519  -5.1887  -5.1713  -5.0294  -4.9667   1.8063  11.1611  17.3000
    17.6685  20.9596  23.2398

          k =-0.3333 0.5000-0.3333 (  1939 PWs)   bands (ev):

    -5.2557  -5.2058  -5.1852  -4.9775  -4.9270   2.8516   9.0595  17.0749
    17.1676  20.6442  23.0950

          k = 0.5833-0.4167 0.5833 (  1941 PWs)   bands (ev):

    -5.2562  -5.2157  -5.1951  -4.9407  -4.9144   3.7167   7.7103  16.6087
    17.2887  20.6192  22.7881

          k = 0.5000-0.3333 0.5000 (  1939 PWs)   bands (ev):

    -5.2516  -5.2144  -5.1958  -4.9355  -4.9311   3.4978   8.0282  16.3468
    17.6624  20.8660  22.5354

          k = 0.4167-0.2500 0.4167 (  1936 PWs)   bands (ev):

    -5.2441  -5.2026  -5.1867  -4.9844  -4.9503   2.4935   9.7112  16.3242
    18.2488  21.3389  22.4536

          k = 0.3333-0.1667 0.3333 (  1938 PWs)   bands (ev):

    -5.2375  -5.1872  -5.1739  -5.0439  -4.9892   1.4907  11.9518  16.5472
    18.9457  21.8380  22.7333

          k = 0.2500-0.0833 0.2500 (  1942 PWs)   bands (ev):

    -5.2342  -5.1809  -5.1761  -5.0821  -5.0297   0.7071  14.4660  17.0211
    19.5520  22.0196  23.6063

          k = 0.1667-0.0000 0.1667 (  1945 PWs)   bands (ev):

    -5.2320  -5.2013  -5.1939  -5.0807  -5.0551   0.1936  16.8476  17.9310
    19.7730  21.8619  24.3199

          k = 0.0000 0.3333 0.0000 (  1960 PWs)   bands (ev):

    -5.2741  -5.1438  -5.1438  -5.1203  -5.0331   0.5664  16.5964  17.3921
    17.3921  20.4345  21.9273

          k =-0.0833 0.4167-0.0833 (  1955 PWs)   bands (ev):

    -5.2870  -5.1521  -5.1152  -5.0987  -5.0068   1.0782  14.5129  16.7481
    16.9952  20.4400  21.1903

          k =-0.1667 0.5000-0.1667 (  1943 PWs)   bands (ev):

    -5.2851  -5.1742  -5.1142  -5.0608  -4.9607   1.8554  12.1383  16.2418
    16.3401  19.9400  22.4294

          k =-0.2500 0.5833-0.2500 (  1943 PWs)   bands (ev):

    -5.2776  -5.1845  -5.1271  -5.0277  -4.9218   2.8395  10.0016  15.4027
    16.2078  19.6447  24.1948

          k = 0.6667-0.3333 0.6667 (  1942 PWs)   bands (ev):

    -5.2680  -5.1867  -5.1404  -4.9985  -4.9112   3.8016   8.4142  14.6906
    16.3722  19.6444  24.6603

          k = 0.5833-0.2500 0.5833 (  1948 PWs)   bands (ev):

    -5.2525  -5.1895  -5.1470  -4.9771  -4.9355   3.9950   8.1450  14.2076
    16.8326  19.9120  24.2249

          k = 0.5000-0.1667 0.5000 (  1943 PWs)   bands (ev):

    -5.2306  -5.1969  -5.1438  -4.9891  -4.9689   3.1716   9.4353  14.0108
    17.5561  20.4394  23.9022

          k = 0.4167-0.0833 0.4167 (  1939 PWs)   bands (ev):

    -5.2154  -5.2008  -5.1314  -5.0569  -4.9767   2.1589  11.3987  14.1641
    18.4510  21.2289  23.6402

          k = 0.3333 0.0000 0.3333 (  1935 PWs)   bands (ev):

    -5.2272  -5.1845  -5.1336  -5.1005  -4.9986   1.3078  13.3394  14.9748
    19.2815  22.2759  23.0789

          k = 0.0000 0.5000 0.0000 (  1964 PWs)   bands (ev):

    -5.3213  -5.1805  -5.0580  -5.0580  -4.9983   1.4947  14.3587  16.0023
    16.0023  19.6546  19.7179

          k =-0.0833 0.5833-0.0833 (  1945 PWs)   bands (ev):

    -5.3332  -5.2080  -5.0398  -5.0199  -4.9598   2.1772  12.7177  15.1378
    15.5069  19.1215  20.1628

          k =-0.1667 0.6667-0.1667 (  1936 PWs)   bands (ev):

    -5.3235  -5.2143  -5.0500  -5.0044  -4.9180   3.0785  10.8743  13.9734
    15.3070  18.8771  21.7947

          k = 0.7500-0.2500 0.7500 (  1941 PWs)   bands (ev):

    -5.3059  -5.1884  -5.0647  -5.0125  -4.9062   4.0343   9.3305  12.9544
    15.4246  18.8848  23.8993

          k = 0.6667-0.1667 0.6667 (  1944 PWs)   bands (ev):

    -5.2851  -5.1450  -5.0768  -5.0329  -4.9306   4.5070   8.7142  12.2243
    15.8586  19.1241  26.1458

          k = 0.5833-0.0833 0.5833 (  1941 PWs)   bands (ev):

    -5.2584  -5.1362  -5.0832  -5.0276  -4.9840   3.9761   9.5279  11.8781
    16.5786  19.5939  25.8266

          k = 0.5000 0.0000 0.5000 (  1947 PWs)   bands (ev):

    -5.2287  -5.1734  -5.0893  -5.0443  -4.9942   3.0355  10.7954  12.3179
    17.5064  20.2989  25.1440

          k = 0.0000 0.6667 0.0000 (  1948 PWs)   bands (ev):

    -5.3681  -5.2465  -4.9689  -4.9689  -4.9632   2.7618  11.9488  14.9149
    14.9149  18.3325  19.1001

          k =-0.0833 0.7500-0.0833 (  1943 PWs)   bands (ev):

    -5.3731  -5.2660  -4.9756  -4.9436  -4.9154   3.5647  10.6966  13.8357
    14.6219  18.2496  19.6337

          k = 0.8333-0.1667 0.8333 (  1941 PWs)   bands (ev):

    -5.3525  -5.2526  -4.9897  -4.9534  -4.8989   4.4415   9.6627  12.3020
    14.6559  18.3273  21.3848

          k = 0.7500-0.0833 0.7500 (  1927 PWs)   bands (ev):

    -5.3240  -5.1963  -5.0067  -4.9958  -4.9187   4.9789   9.3328  10.9810
    15.0186  18.5471  23.6421

          k = 0.6667-0.0000 0.6667 (  1935 PWs)   bands (ev):

    -5.2924  -5.1141  -5.0598  -5.0327  -4.9586   4.7196   9.9769  10.2395
    15.6822  18.9634  26.1525

          k = 0.0000 0.8333 0.0000 (  1956 PWs)   bands (ev):

    -5.4022  -5.2980  -4.9375  -4.9017  -4.9017   4.2460   9.6798  14.2281
    14.2281  17.6098  18.7725

          k = 0.9167-0.0833 0.9167 (  1948 PWs)   bands (ev):

    -5.3961  -5.3013  -4.9410  -4.8979  -4.8863   4.9426   8.8948  13.2332
    14.1629  17.8493  19.3817

          k = 0.8333 0.0000 0.8333 (  1938 PWs)   bands (ev):

    -5.3634  -5.2675  -4.9609  -4.9335  -4.8983   5.2378   8.8976  11.7473
    14.4338  18.1561  21.2466

          k = 0.0000-1.0000 0.0000 (  1964 PWs)   bands (ev):

    -5.4147  -5.3173  -4.9281  -4.8768  -4.8768   5.2189   8.4300  13.9935
    13.9935  17.3871  18.6644

          k =-0.1667 0.3333 0.0000 (  1950 PWs)   bands (ev):

    -5.2563  -5.1647  -5.1467  -5.1053  -5.0231   0.7532  15.0352  16.4557
    18.7782  21.5311  22.3239

          k =-0.2500 0.4167-0.0833 (  1941 PWs)   bands (ev):

    -5.2536  -5.1744  -5.1324  -5.0833  -4.9873   1.4457  12.8583  15.5625
    18.2313  21.3622  22.7274

          k =-0.3333 0.5000-0.1667 (  1938 PWs)   bands (ev):

    -5.2472  -5.1949  -5.1427  -5.0322  -4.9508   2.3757  10.6065  15.1939
    17.4376  20.9193  23.2740

          k = 0.5833-0.4167 0.7500 (  1938 PWs)   bands (ev):

    -5.2414  -5.2143  -5.1512  -4.9878  -4.9275   3.4048   8.7466  15.0723
    16.7893  20.6787  22.9966

          k = 0.5000-0.3333 0.6667 (  1952 PWs)   bands (ev):

    -5.2365  -5.2252  -5.1543  -4.9688  -4.9212   3.9825   7.8879  15.0641
    16.5299  20.6030  22.8616

          k =-0.1667 0.5000 0.0000 (  1945 PWs)   bands (ev):

    -5.2979  -5.1758  -5.0922  -5.0605  -4.9783   1.6761  13.3402  15.1199
    16.7215  20.4621  20.7791

          k =-0.2500 0.5833-0.0833 (  1939 PWs)   bands (ev):

    -5.2887  -5.1926  -5.0951  -5.0253  -4.9458   2.5187  11.5082  14.2374
    15.9591  20.2301  22.1514

          k = 0.6667-0.3333 0.8333 (  1940 PWs)   bands (ev):

    -5.2728  -5.1927  -5.0993  -5.0160  -4.9220   3.5069   9.6889  13.7287
    15.3991  20.1581  23.9000

          k = 0.5833-0.2500 0.7500 (  1942 PWs)   bands (ev):

    -5.2580  -5.1881  -5.0924  -5.0232  -4.9200   4.2763   8.5317  13.2828
    15.3564  20.3004  23.9473

          k = 0.5000-0.1667 0.6667 (  1944 PWs)   bands (ev):

    -5.2395  -5.1936  -5.0932  -5.0205  -4.9421   4.0733   8.8417  12.9733
    15.7821  20.6476  23.6396

          k = 0.4167-0.0833 0.5833 (  1941 PWs)   bands (ev):

    -5.2164  -5.2110  -5.1055  -5.0217  -4.9677   3.1571  10.3147  12.9696
    16.5378  21.1603  23.4960

          k = 0.3333 0.0000 0.5000 (  1937 PWs)   bands (ev):

    -5.2368  -5.1921  -5.1090  -5.0636  -4.9723   2.2062  11.9264  13.6515
    17.4738  21.6474  22.9637

          k =-0.1667 0.6667-0.0000 (  1944 PWs)   bands (ev):

    -5.3401  -5.2322  -5.0310  -4.9704  -4.9388   2.9235  11.5905  14.0850
    14.8029  19.3565  20.1777

          k = 0.7500-0.2500 0.9167 (  1945 PWs)   bands (ev):

    -5.3212  -5.2325  -5.0419  -4.9619  -4.9164   3.8318  10.3150  12.9060
    14.3017  19.5568  21.6414

          k = 0.6667-0.1667 0.8333 (  1929 PWs)   bands (ev):

    -5.2965  -5.1948  -5.0564  -4.9971  -4.9092   4.6349   9.3432  11.8434
    14.3597  19.7340  23.7863

          k = 0.5833-0.0833 0.7500 (  1934 PWs)   bands (ev):

    -5.2722  -5.1394  -5.0773  -5.0363  -4.9323   4.7316   9.3714  11.1476
    14.8151  20.0960  25.4096

          k = 0.5000 0.0000 0.6667 (  1940 PWs)   bands (ev):

    -5.2443  -5.1552  -5.0907  -5.0172  -4.9750   4.0437  10.1179  11.2885
    15.5758  20.6364  25.0033

          k = 0.8333-0.1667 1.0000 (  1947 PWs)   bands (ev):

    -5.3710  -5.2791  -4.9736  -4.9179  -4.9022   4.3542   9.7384  13.4318
    13.6675  18.7634  19.8120

          k = 0.7500-0.0833 0.9167 (  1936 PWs)   bands (ev):

    -5.3406  -5.2597  -4.9877  -4.9530  -4.8891   5.0360   9.2275  11.9501
    13.6515  19.2378  21.3738

          k = 0.6667 0.0000 0.8333 (  1929 PWs)   bands (ev):

    -5.3060  -5.1975  -5.0273  -4.9998  -4.9051   5.1668   9.5753  10.6273
    14.0796  19.5958  23.6746

          k =-0.1667-1.0000-0.0000 (  1940 PWs)   bands (ev):

    -5.3822  -5.2969  -4.9452  -4.9169  -4.8767   5.2465   8.6648  13.2085
    13.3169  18.5751  19.6904

          k = 0.6667-0.3333 1.0000 (  1930 PWs)   bands (ev):

    -5.2625  -5.2092  -5.0976  -4.9737  -4.9586   3.3817  10.7929  12.6345
    15.0089  21.3571  22.3796

          k = 0.5833-0.2500 0.9167 (  1933 PWs)   bands (ev):

    -5.2351  -5.2053  -5.0975  -5.0016  -4.9297   4.2822   9.7167  11.9904
    14.2415  21.5683  23.5602

          k = 0.5000-0.1667 0.8333 (  1930 PWs)   bands (ev):

    -5.2339  -5.1885  -5.0836  -5.0370  -4.9144   4.7437   9.1128  11.8840
    13.9461  21.5759  23.5928

          k = 0.6667-0.1667 1.0000 (  1946 PWs)   bands (ev):

    -5.2835  -5.2364  -5.0571  -4.9674  -4.9033   4.6338   9.8584  11.9953
    13.1336  21.0742  21.9873

          k = 0.5833-0.0833 0.9167 (  1929 PWs)   bands (ev):

    -5.2498  -5.1978  -5.0924  -5.0078  -4.8898   5.1355   9.7626  11.0086
    12.8771  21.6307  23.8502

          k = 0.5000 0.0000 0.8333 (  1932 PWs)   bands (ev):

    -5.2339  -5.1586  -5.1311  -5.0177  -4.9046   4.9549  10.0575  10.6401
    13.3384  21.9601  24.7900

          k =-0.3333-1.0000 0.0000 (  1940 PWs)   bands (ev):

    -5.2914  -5.2486  -5.0234  -4.9874  -4.8768   5.3044   9.3477  11.7771
    12.4448  20.9646  21.8539

          k =-0.5000-1.0000 0.0000 (  1912 PWs)   bands (ev):

    -5.2168  -5.1611  -5.1611  -5.0159  -4.8766   5.3348  10.4186  10.4186
    12.1092  23.0942  24.4582

     the Fermi energy is    11.9236 ev

!    total energy              =    -135.43416379 Ry
     Harris-Foulkes estimate   =    -135.43416379 Ry
     estimated scf accuracy    <          5.8E-10 Ry

     The total energy is the sum of the following terms:

     one-electron contribution =     -31.47680198 Ry
     hartree contribution      =      26.10697682 Ry
     xc contribution           =     -32.62552822 Ry
     ewald contribution        =     -97.43857717 Ry
     smearing contrib. (-TS)   =      -0.00023324 Ry

     convergence has been achieved in   6 iterations

     Writing output data file Pb.save/

     init_run     :      2.27s CPU      2.37s WALL (       1 calls)
     electrons    :     30.61s CPU     31.27s WALL (       1 calls)

     Called by init_run:
     wfcinit      :      1.26s CPU      1.29s WALL (       1 calls)
     potinit      :      0.07s CPU      0.09s WALL (       1 calls)
     hinit0       :      0.80s CPU      0.80s WALL (       1 calls)

     Called by electrons:
     c_bands      :     24.93s CPU     25.02s WALL (       7 calls)
     sum_band     :      4.71s CPU      5.04s WALL (       7 calls)
     v_of_rho     :      0.42s CPU      0.44s WALL (       7 calls)
     newd         :      0.64s CPU      0.92s WALL (       7 calls)
     mix_rho      :      0.04s CPU      0.04s WALL (       7 calls)

     Called by c_bands:
     init_us_2    :      0.56s CPU      0.57s WALL (    1080 calls)
     cegterg      :     23.65s CPU     23.73s WALL (     504 calls)

     Called by sum_band:
     sum_band:bec :      0.00s CPU      0.00s WALL (     504 calls)
     addusdens    :      0.68s CPU      0.99s WALL (       7 calls)

     Called by *egterg:
     h_psi        :     19.10s CPU     19.18s WALL (    1875 calls)
     s_psi        :      0.94s CPU      0.95s WALL (    1875 calls)
     g_psi        :      0.13s CPU      0.13s WALL (    1299 calls)
     cdiaghg      :      0.41s CPU      0.41s WALL (    1731 calls)

     Called by h_psi:
     h_psi:pot    :     19.04s CPU     19.11s WALL (    1875 calls)
     h_psi:calbec :      1.06s CPU      1.07s WALL (    1875 calls)
     vloc_psi     :     16.99s CPU     17.06s WALL (    1875 calls)
     add_vuspsi   :      0.97s CPU      0.97s WALL (    1875 calls)

     General routines
     calbec       :      1.43s CPU      1.44s WALL (    2379 calls)
     fft          :      0.20s CPU      0.20s WALL (      90 calls)
     ffts         :      0.01s CPU      0.02s WALL (      14 calls)
     fftw         :     17.60s CPU     17.68s WALL (   35754 calls)
     interpolate  :      0.03s CPU      0.03s WALL (       7 calls)

     Parallel routines

     PWSCF        :     33.70s CPU     34.49s WALL


   This run was terminated on:  20: 6:42  30Jun2021            

=------------------------------------------------------------------------------=
   JOB DONE.
=------------------------------------------------------------------------------=
