
     Program PWSCF v.6.4.1 starts on 30Jun2021 at 20: 3: 7 

     This program is part of the open-source Quantum ESPRESSO suite
     for quantum simulation of materials; please cite
         "P. Giannozzi et al., J. Phys.:Condens. Matter 21 395502 (2009);
         "P. Giannozzi et al., J. Phys.:Condens. Matter 29 465901 (2017);
          URL http://www.quantum-espresso.org", 
     in publications or presentations arising from this work. More details at
     http://www.quantum-espresso.org/quote

     Parallel version (MPI), running on     1 processors

     MPI processes distributed on     1 nodes
     Waiting for input...
     Reading input from standard input

     Current dimensions of program PWSCF are:
     Max number of different atomic species (ntypx) = 10
     Max number of k-points (npk) =  40000
     Max angular momentum in pseudopotentials (lmaxx) =  3
               file Pb.pbe-dn-rrkjus_psl.1.0.0.UPF: wavefunction(s)  6S 5D renormalized

     Subspace diagonalization in iterative solution of the eigenvalue problem:
     a serial algorithm will be used


     G-vector sticks info
     --------------------
     sticks:   dense  smooth     PW     G-vecs:    dense   smooth      PW
     Sum        1639     823    253                43895    15593    2685


     Title: 
     Lead                                                                       


     bravais-lattice index     =            2
     lattice parameter (alat)  =       9.2226  a.u.
     unit-cell volume          =     196.1075 (a.u.)^3
     number of atoms/cell      =            1
     number of atomic types    =            1
     number of electrons       =        14.00
     number of Kohn-Sham states=           11
     kinetic-energy cutoff     =      70.0000  Ry
     charge density cutoff     =     560.0000  Ry
     convergence threshold     =      1.0E-09
     mixing beta               =       0.7000
     number of iterations used =            8  plain     mixing
     Exchange-correlation      = PBE ( 1  4  3  4 0 0)

     celldm(1)=   9.222558  celldm(2)=   0.000000  celldm(3)=   0.000000
     celldm(4)=   0.000000  celldm(5)=   0.000000  celldm(6)=   0.000000

     crystal axes: (cart. coord. in units of alat)
               a(1) = (  -0.500000   0.000000   0.500000 )  
               a(2) = (   0.000000   0.500000   0.500000 )  
               a(3) = (  -0.500000   0.500000   0.000000 )  

     reciprocal axes: (cart. coord. in units 2 pi/alat)
               b(1) = ( -1.000000 -1.000000  1.000000 )  
               b(2) = (  1.000000  1.000000  1.000000 )  
               b(3) = ( -1.000000  1.000000 -1.000000 )  


     PseudoPot. # 1 for Pb read from file:
     /home/elena/qe-6.7/pseudo/Pb.pbe-dn-rrkjus_psl.1.0.0.UPF
     MD5 check sum: 1cf8f5e18580e6a90a35f98a53d336de
     Pseudo is Ultrasoft + core correction, Zval = 14.0
     Generated using "atomic" code by A. Dal Corso v.6.3
     Using radial grid of 1281 points,  6 beta functions with: 
                l(1) =   0
                l(2) =   0
                l(3) =   1
                l(4) =   1
                l(5) =   2
                l(6) =   2
     Q(r) pseudized with 0 coefficients 


     atomic species   valence    mass     pseudopotential
        Pb            14.00   207.20000     Pb( 1.00)

     48 Sym. Ops., with inversion, found



   Cartesian axes

     site n.     atom                  positions (alat units)
         1           Pb  tau(   1) = (   0.0000000   0.0000000   0.0000000  )

     number of k points=    72  Methfessel-Paxton smearing, width (Ry)=  0.0600
                       cart. coord. in units 2pi/alat
        k(    1) = (   0.0000000   0.0000000   0.0000000), wk =   0.0011574
        k(    2) = (  -0.0833333   0.0833333  -0.0833333), wk =   0.0092593
        k(    3) = (  -0.1666667   0.1666667  -0.1666667), wk =   0.0092593
        k(    4) = (  -0.2500000   0.2500000  -0.2500000), wk =   0.0092593
        k(    5) = (  -0.3333333   0.3333333  -0.3333333), wk =   0.0092593
        k(    6) = (  -0.4166667   0.4166667  -0.4166667), wk =   0.0092593
        k(    7) = (   0.5000000  -0.5000000   0.5000000), wk =   0.0046296
        k(    8) = (   0.0000000   0.1666667   0.0000000), wk =   0.0069444
        k(    9) = (  -0.0833333   0.2500000  -0.0833333), wk =   0.0277778
        k(   10) = (  -0.1666667   0.3333333  -0.1666667), wk =   0.0277778
        k(   11) = (  -0.2500000   0.4166667  -0.2500000), wk =   0.0277778
        k(   12) = (  -0.3333333   0.5000000  -0.3333333), wk =   0.0277778
        k(   13) = (   0.5833333  -0.4166667   0.5833333), wk =   0.0277778
        k(   14) = (   0.5000000  -0.3333333   0.5000000), wk =   0.0277778
        k(   15) = (   0.4166667  -0.2500000   0.4166667), wk =   0.0277778
        k(   16) = (   0.3333333  -0.1666667   0.3333333), wk =   0.0277778
        k(   17) = (   0.2500000  -0.0833333   0.2500000), wk =   0.0277778
        k(   18) = (   0.1666667  -0.0000000   0.1666667), wk =   0.0138889
        k(   19) = (   0.0000000   0.3333333   0.0000000), wk =   0.0069444
        k(   20) = (  -0.0833333   0.4166667  -0.0833333), wk =   0.0277778
        k(   21) = (  -0.1666667   0.5000000  -0.1666667), wk =   0.0277778
        k(   22) = (  -0.2500000   0.5833333  -0.2500000), wk =   0.0277778
        k(   23) = (   0.6666667  -0.3333333   0.6666667), wk =   0.0277778
        k(   24) = (   0.5833333  -0.2500000   0.5833333), wk =   0.0277778
        k(   25) = (   0.5000000  -0.1666667   0.5000000), wk =   0.0277778
        k(   26) = (   0.4166667  -0.0833333   0.4166667), wk =   0.0277778
        k(   27) = (   0.3333333   0.0000000   0.3333333), wk =   0.0138889
        k(   28) = (   0.0000000   0.5000000   0.0000000), wk =   0.0069444
        k(   29) = (  -0.0833333   0.5833333  -0.0833333), wk =   0.0277778
        k(   30) = (  -0.1666667   0.6666667  -0.1666667), wk =   0.0277778
        k(   31) = (   0.7500000  -0.2500000   0.7500000), wk =   0.0277778
        k(   32) = (   0.6666667  -0.1666667   0.6666667), wk =   0.0277778
        k(   33) = (   0.5833333  -0.0833333   0.5833333), wk =   0.0277778
        k(   34) = (   0.5000000   0.0000000   0.5000000), wk =   0.0138889
        k(   35) = (   0.0000000   0.6666667   0.0000000), wk =   0.0069444
        k(   36) = (  -0.0833333   0.7500000  -0.0833333), wk =   0.0277778
        k(   37) = (   0.8333333  -0.1666667   0.8333333), wk =   0.0277778
        k(   38) = (   0.7500000  -0.0833333   0.7500000), wk =   0.0277778
        k(   39) = (   0.6666667  -0.0000000   0.6666667), wk =   0.0138889
        k(   40) = (   0.0000000   0.8333333   0.0000000), wk =   0.0069444
        k(   41) = (   0.9166667  -0.0833333   0.9166667), wk =   0.0277778
        k(   42) = (   0.8333333   0.0000000   0.8333333), wk =   0.0138889
        k(   43) = (   0.0000000  -1.0000000   0.0000000), wk =   0.0034722
        k(   44) = (  -0.1666667   0.3333333   0.0000000), wk =   0.0277778
        k(   45) = (  -0.2500000   0.4166667  -0.0833333), wk =   0.0555556
        k(   46) = (  -0.3333333   0.5000000  -0.1666667), wk =   0.0555556
        k(   47) = (   0.5833333  -0.4166667   0.7500000), wk =   0.0555556
        k(   48) = (   0.5000000  -0.3333333   0.6666667), wk =   0.0277778
        k(   49) = (  -0.1666667   0.5000000   0.0000000), wk =   0.0277778
        k(   50) = (  -0.2500000   0.5833333  -0.0833333), wk =   0.0555556
        k(   51) = (   0.6666667  -0.3333333   0.8333333), wk =   0.0555556
        k(   52) = (   0.5833333  -0.2500000   0.7500000), wk =   0.0555556
        k(   53) = (   0.5000000  -0.1666667   0.6666667), wk =   0.0555556
        k(   54) = (   0.4166667  -0.0833333   0.5833333), wk =   0.0555556
        k(   55) = (   0.3333333   0.0000000   0.5000000), wk =   0.0277778
        k(   56) = (  -0.1666667   0.6666667  -0.0000000), wk =   0.0277778
        k(   57) = (   0.7500000  -0.2500000   0.9166667), wk =   0.0555556
        k(   58) = (   0.6666667  -0.1666667   0.8333333), wk =   0.0555556
        k(   59) = (   0.5833333  -0.0833333   0.7500000), wk =   0.0555556
        k(   60) = (   0.5000000   0.0000000   0.6666667), wk =   0.0277778
        k(   61) = (   0.8333333  -0.1666667   1.0000000), wk =   0.0277778
        k(   62) = (   0.7500000  -0.0833333   0.9166667), wk =   0.0555556
        k(   63) = (   0.6666667   0.0000000   0.8333333), wk =   0.0277778
        k(   64) = (  -0.1666667  -1.0000000  -0.0000000), wk =   0.0138889
        k(   65) = (   0.6666667  -0.3333333   1.0000000), wk =   0.0277778
        k(   66) = (   0.5833333  -0.2500000   0.9166667), wk =   0.0555556
        k(   67) = (   0.5000000  -0.1666667   0.8333333), wk =   0.0277778
        k(   68) = (   0.6666667  -0.1666667   1.0000000), wk =   0.0277778
        k(   69) = (   0.5833333  -0.0833333   0.9166667), wk =   0.0555556
        k(   70) = (   0.5000000   0.0000000   0.8333333), wk =   0.0277778
        k(   71) = (  -0.3333333  -1.0000000   0.0000000), wk =   0.0138889
        k(   72) = (  -0.5000000  -1.0000000   0.0000000), wk =   0.0069444

     Dense  grid:    43895 G-vectors     FFT dimensions: (  50,  50,  50)

     Smooth grid:    15593 G-vectors     FFT dimensions: (  36,  36,  36)

     Estimated max dynamical RAM per process >     178.96 MB

     Initial potential from superposition of free atoms

     starting charge   13.99765, renormalised to   14.00000
     Starting wfcs are    9 randomized atomic wfcs +    2 random wfcs

     total cpu time spent up to now is        3.3 secs

     Self-consistent Calculation

     iteration #  1     ecut=    70.00 Ry     beta= 0.70
     Davidson diagonalization with overlap
     ethr =  1.00E-02,  avg # of iterations =  4.2

     Threshold (ethr) on eigenvalues was too large:
     Diagonalizing with lowered threshold

     Davidson diagonalization with overlap
     ethr =  1.63E-05,  avg # of iterations =  3.5

     total cpu time spent up to now is       13.1 secs

     total energy              =    -135.43476107 Ry
     Harris-Foulkes estimate   =    -135.43614593 Ry
     estimated scf accuracy    <       0.00231136 Ry

     iteration #  2     ecut=    70.00 Ry     beta= 0.70
     Davidson diagonalization with overlap
     ethr =  1.65E-05,  avg # of iterations =  2.1

     total cpu time spent up to now is       17.5 secs

     total energy              =    -135.43522823 Ry
     Harris-Foulkes estimate   =    -135.43534353 Ry
     estimated scf accuracy    <       0.00020303 Ry

     iteration #  3     ecut=    70.00 Ry     beta= 0.70
     Davidson diagonalization with overlap
     ethr =  1.45E-06,  avg # of iterations =  2.2

     total cpu time spent up to now is       21.7 secs

     total energy              =    -135.43527038 Ry
     Harris-Foulkes estimate   =    -135.43527143 Ry
     estimated scf accuracy    <       0.00000966 Ry

     iteration #  4     ecut=    70.00 Ry     beta= 0.70
     Davidson diagonalization with overlap
     ethr =  6.90E-08,  avg # of iterations =  2.0

     total cpu time spent up to now is       25.5 secs

     total energy              =    -135.43527155 Ry
     Harris-Foulkes estimate   =    -135.43527148 Ry
     estimated scf accuracy    <       0.00000009 Ry

     iteration #  5     ecut=    70.00 Ry     beta= 0.70
     Davidson diagonalization with overlap
     ethr =  6.78E-10,  avg # of iterations =  2.1

     total cpu time spent up to now is       32.0 secs

     total energy              =    -135.43527157 Ry
     Harris-Foulkes estimate   =    -135.43527158 Ry
     estimated scf accuracy    <       0.00000001 Ry

     iteration #  6     ecut=    70.00 Ry     beta= 0.70
     Davidson diagonalization with overlap
     ethr =  8.81E-11,  avg # of iterations =  2.0

     total cpu time spent up to now is       37.4 secs

     End of self-consistent calculation

          k = 0.0000 0.0000 0.0000 (  1917 PWs)   bands (ev):

    -5.2287  -5.2287  -5.2287  -5.0697  -5.0697  -0.1801  19.6451  19.6451
    19.6451  21.9781  23.7536

          k =-0.0833 0.0833-0.0833 (  1947 PWs)   bands (ev):

    -5.2294  -5.2176  -5.2176  -5.0706  -5.0706  -0.0404  18.0465  19.4663
    19.4663  21.6801  24.3737

          k =-0.1667 0.1667-0.1667 (  1940 PWs)   bands (ev):

    -5.2329  -5.1955  -5.1955  -5.0637  -5.0637   0.3800  15.3548  19.0402
    19.0402  21.3625  24.9133

          k =-0.2500 0.2500-0.2500 (  1949 PWs)   bands (ev):

    -5.2413  -5.1888  -5.1888  -5.0302  -5.0302   1.0780  12.7009  18.5479
    18.5479  21.1653  23.7910

          k =-0.3333 0.3333-0.3333 (  1940 PWs)   bands (ev):

    -5.2535  -5.1995  -5.1995  -4.9779  -4.9779   2.0242  10.3072  18.1151
    18.1151  21.1166  22.8200

          k =-0.4167 0.4167-0.4167 (  1937 PWs)   bands (ev):

    -5.2645  -5.2120  -5.2120  -4.9344  -4.9344   3.0885   8.3604  17.8222
    17.8222  21.2211  22.1014

          k = 0.5000-0.5000 0.5000 (  1946 PWs)   bands (ev):

    -5.2691  -5.2172  -5.2172  -4.9178  -4.9178   3.7027   7.4501  17.7188
    17.7188  21.3870  21.7312

          k = 0.0000 0.1667 0.0000 (  1941 PWs)   bands (ev):

    -5.2415  -5.2069  -5.2069  -5.0830  -5.0605   0.0061  18.5533  18.8543
    18.8543  21.3725  24.5255

          k =-0.0833 0.2500-0.0833 (  1944 PWs)   bands (ev):

    -5.2491  -5.1838  -5.1814  -5.0933  -5.0481   0.3328  16.2633  18.2036
    18.7492  21.3984  23.4614

          k =-0.1667 0.3333-0.1667 (  1938 PWs)   bands (ev):

    -5.2511  -5.1763  -5.1670  -5.0782  -5.0168   0.9387  13.6224  17.6600
    18.2766  21.4476  23.0794

          k =-0.2500 0.4167-0.2500 (  1941 PWs)   bands (ev):

    -5.2541  -5.1909  -5.1735  -5.0316  -4.9689   1.8055  11.1605  17.2993
    17.6678  20.9592  23.2392

          k =-0.3333 0.5000-0.3333 (  1939 PWs)   bands (ev):

    -5.2578  -5.2079  -5.1873  -4.9797  -4.9292   2.8507   9.0589  17.0742
    17.1670  20.6439  23.0943

          k = 0.5833-0.4167 0.5833 (  1941 PWs)   bands (ev):

    -5.2584  -5.2178  -5.1973  -4.9429  -4.9166   3.7158   7.7098  16.6080
    17.2880  20.6189  22.7874

          k = 0.5000-0.3333 0.5000 (  1939 PWs)   bands (ev):

    -5.2538  -5.2166  -5.1979  -4.9378  -4.9333   3.4969   8.0277  16.3462
    17.6617  20.8657  22.5347

          k = 0.4167-0.2500 0.4167 (  1936 PWs)   bands (ev):

    -5.2463  -5.2048  -5.1889  -4.9867  -4.9525   2.4927   9.7106  16.3236
    18.2481  21.3385  22.4529

          k = 0.3333-0.1667 0.3333 (  1938 PWs)   bands (ev):

    -5.2397  -5.1894  -5.1760  -5.0461  -4.9914   1.4900  11.9511  16.5466
    18.9450  21.8376  22.7327

          k = 0.2500-0.0833 0.2500 (  1942 PWs)   bands (ev):

    -5.2363  -5.1831  -5.1783  -5.0843  -5.0319   0.7063  14.4654  17.0204
    19.5513  22.0191  23.6059

          k = 0.1667-0.0000 0.1667 (  1945 PWs)   bands (ev):

    -5.2342  -5.2035  -5.1961  -5.0829  -5.0573   0.1929  16.8469  17.9303
    19.7722  21.8614  24.3194

          k = 0.0000 0.3333 0.0000 (  1960 PWs)   bands (ev):

    -5.2763  -5.1461  -5.1461  -5.1224  -5.0353   0.5657  16.5956  17.3915
    17.3915  20.4339  21.9269

          k =-0.0833 0.4167-0.0833 (  1955 PWs)   bands (ev):

    -5.2891  -5.1542  -5.1174  -5.1009  -5.0089   1.0775  14.5122  16.7475
    16.9945  20.4395  21.1899

          k =-0.1667 0.5000-0.1667 (  1943 PWs)   bands (ev):

    -5.2873  -5.1764  -5.1164  -5.0630  -4.9629   1.8546  12.1376  16.2411
    16.3394  19.9396  22.4289

          k =-0.2500 0.5833-0.2500 (  1943 PWs)   bands (ev):

    -5.2798  -5.1867  -5.1293  -5.0299  -4.9241   2.8387  10.0010  15.4020
    16.2071  19.6443  24.1942

          k = 0.6667-0.3333 0.6667 (  1942 PWs)   bands (ev):

    -5.2702  -5.1889  -5.1425  -5.0008  -4.9134   3.8007   8.4137  14.6899
    16.3715  19.6440  24.6597

          k = 0.5833-0.2500 0.5833 (  1948 PWs)   bands (ev):

    -5.2547  -5.1917  -5.1492  -4.9793  -4.9377   3.9941   8.1445  14.2070
    16.8319  19.9116  24.2243

          k = 0.5000-0.1667 0.5000 (  1943 PWs)   bands (ev):

    -5.2328  -5.1991  -5.1460  -4.9913  -4.9711   3.1707   9.4348  14.0102
    17.5554  20.4390  23.9016

          k = 0.4167-0.0833 0.4167 (  1939 PWs)   bands (ev):

    -5.2175  -5.2030  -5.1336  -5.0591  -4.9789   2.1581  11.3981  14.1634
    18.4503  21.2285  23.6396

          k = 0.3333 0.0000 0.3333 (  1935 PWs)   bands (ev):

    -5.2294  -5.1867  -5.1358  -5.1027  -5.0008   1.3070  13.3387  14.9742
    19.2807  22.2755  23.0784

          k = 0.0000 0.5000 0.0000 (  1964 PWs)   bands (ev):

    -5.3235  -5.1826  -5.0602  -5.0602  -5.0005   1.4939  14.3579  16.0017
    16.0017  19.6540  19.7175

          k =-0.0833 0.5833-0.0833 (  1945 PWs)   bands (ev):

    -5.3353  -5.2101  -5.0420  -5.0221  -4.9620   2.1764  12.7169  15.1372
    15.5063  19.1211  20.1622

          k =-0.1667 0.6667-0.1667 (  1936 PWs)   bands (ev):

    -5.3256  -5.2164  -5.0522  -5.0066  -4.9203   3.0777  10.8737  13.9728
    15.3064  18.8766  21.7941

          k = 0.7500-0.2500 0.7500 (  1941 PWs)   bands (ev):

    -5.3080  -5.1906  -5.0669  -5.0148  -4.9084   4.0334   9.3299  12.9537
    15.4240  18.8844  23.8987

          k = 0.6667-0.1667 0.6667 (  1944 PWs)   bands (ev):

    -5.2872  -5.1472  -5.0790  -5.0351  -4.9328   4.5060   8.7137  12.2237
    15.8580  19.1236  26.1453

          k = 0.5833-0.0833 0.5833 (  1941 PWs)   bands (ev):

    -5.2606  -5.1384  -5.0854  -5.0298  -4.9862   3.9752   9.5273  11.8775
    16.5779  19.5934  25.8261

          k = 0.5000 0.0000 0.5000 (  1947 PWs)   bands (ev):

    -5.2308  -5.1756  -5.0914  -5.0465  -4.9964   3.0347  10.7948  12.3173
    17.5057  20.2985  25.1435

          k = 0.0000 0.6667 0.0000 (  1948 PWs)   bands (ev):

    -5.3703  -5.2486  -4.9712  -4.9712  -4.9654   2.7609  11.9481  14.9143
    14.9143  18.3322  19.0995

          k =-0.0833 0.7500-0.0833 (  1943 PWs)   bands (ev):

    -5.3753  -5.2681  -4.9778  -4.9458  -4.9177   3.5638  10.6959  13.8351
    14.6213  18.2492  19.6331

          k = 0.8333-0.1667 0.8333 (  1941 PWs)   bands (ev):

    -5.3546  -5.2548  -4.9919  -4.9556  -4.9011   4.4406   9.6620  12.3014
    14.6553  18.3268  21.3842

          k = 0.7500-0.0833 0.7500 (  1927 PWs)   bands (ev):

    -5.3262  -5.1984  -5.0089  -4.9980  -4.9209   4.9779   9.3323  10.9804
    15.0180  18.5467  23.6415

          k = 0.6667-0.0000 0.6667 (  1935 PWs)   bands (ev):

    -5.2945  -5.1162  -5.0620  -5.0348  -4.9608   4.7187   9.9763  10.2389
    15.6816  18.9629  26.1520

          k = 0.0000 0.8333 0.0000 (  1956 PWs)   bands (ev):

    -5.4044  -5.3001  -4.9397  -4.9040  -4.9040   4.2451   9.6792  14.2275
    14.2275  17.6094  18.7719

          k = 0.9167-0.0833 0.9167 (  1948 PWs)   bands (ev):

    -5.3983  -5.3034  -4.9432  -4.9002  -4.8886   4.9417   8.8942  13.2326
    14.1623  17.8489  19.3811

          k = 0.8333 0.0000 0.8333 (  1938 PWs)   bands (ev):

    -5.3655  -5.2696  -4.9631  -4.9357  -4.9005   5.2367   8.8971  11.7467
    14.4332  18.1556  21.2461

          k = 0.0000-1.0000 0.0000 (  1964 PWs)   bands (ev):

    -5.4169  -5.3194  -4.9303  -4.8791  -4.8791   5.2178   8.4295  13.9929
    13.9929  17.3867  18.6638

          k =-0.1667 0.3333 0.0000 (  1950 PWs)   bands (ev):

    -5.2585  -5.1669  -5.1489  -5.1075  -5.0253   0.7525  15.0345  16.4550
    18.7774  21.5305  22.3235

          k =-0.2500 0.4167-0.0833 (  1941 PWs)   bands (ev):

    -5.2558  -5.1766  -5.1346  -5.0855  -4.9895   1.4449  12.8576  15.5618
    18.2306  21.3618  22.7269

          k =-0.3333 0.5000-0.1667 (  1938 PWs)   bands (ev):

    -5.2494  -5.1971  -5.1448  -5.0344  -4.9530   2.3749  10.6059  15.1933
    17.4369  20.9189  23.2734

          k = 0.5833-0.4167 0.7500 (  1938 PWs)   bands (ev):

    -5.2436  -5.2165  -5.1534  -4.9900  -4.9297   3.4039   8.7460  15.0717
    16.7887  20.6783  22.9960

          k = 0.5000-0.3333 0.6667 (  1952 PWs)   bands (ev):

    -5.2387  -5.2273  -5.1565  -4.9710  -4.9235   3.9816   7.8874  15.0634
    16.5292  20.6026  22.8610

          k =-0.1667 0.5000 0.0000 (  1945 PWs)   bands (ev):

    -5.3001  -5.1780  -5.0944  -5.0627  -4.9805   1.6753  13.3395  15.1193
    16.7208  20.4617  20.7786

          k =-0.2500 0.5833-0.0833 (  1939 PWs)   bands (ev):

    -5.2908  -5.1947  -5.0973  -5.0276  -4.9480   2.5179  11.5075  14.2368
    15.9585  20.2296  22.1509

          k = 0.6667-0.3333 0.8333 (  1940 PWs)   bands (ev):

    -5.2749  -5.1949  -5.1015  -5.0182  -4.9243   3.5060   9.6883  13.7281
    15.3985  20.1577  23.8994

          k = 0.5833-0.2500 0.7500 (  1942 PWs)   bands (ev):

    -5.2602  -5.1902  -5.0946  -5.0254  -4.9222   4.2753   8.5312  13.2821
    15.3558  20.3000  23.9468

          k = 0.5000-0.1667 0.6667 (  1944 PWs)   bands (ev):

    -5.2416  -5.1958  -5.0954  -5.0227  -4.9443   4.0723   8.8412  12.9727
    15.7815  20.6471  23.6390

          k = 0.4167-0.0833 0.5833 (  1941 PWs)   bands (ev):

    -5.2185  -5.2131  -5.1077  -5.0239  -4.9699   3.1562  10.3141  12.9690
    16.5371  21.1598  23.4954

          k = 0.3333 0.0000 0.5000 (  1937 PWs)   bands (ev):

    -5.2390  -5.1943  -5.1112  -5.0658  -4.9745   2.2054  11.9257  13.6509
    17.4731  21.6470  22.9632

          k =-0.1667 0.6667-0.0000 (  1944 PWs)   bands (ev):

    -5.3423  -5.2343  -5.0333  -4.9726  -4.9410   2.9227  11.5898  14.0844
    14.8023  19.3561  20.1771

          k = 0.7500-0.2500 0.9167 (  1945 PWs)   bands (ev):

    -5.3234  -5.2346  -5.0440  -4.9641  -4.9186   3.8309  10.3143  12.9054
    14.3012  19.5563  21.6409

          k = 0.6667-0.1667 0.8333 (  1929 PWs)   bands (ev):

    -5.2987  -5.1969  -5.0585  -4.9993  -4.9114   4.6340   9.3427  11.8428
    14.3591  19.7335  23.7857

          k = 0.5833-0.0833 0.7500 (  1934 PWs)   bands (ev):

    -5.2744  -5.1416  -5.0795  -5.0384  -4.9346   4.7306   9.3709  11.1471
    14.8145  20.0955  25.4090

          k = 0.5000 0.0000 0.6667 (  1940 PWs)   bands (ev):

    -5.2464  -5.1574  -5.0929  -5.0194  -4.9773   4.0428  10.1173  11.2879
    15.5752  20.6359  25.0027

          k = 0.8333-0.1667 1.0000 (  1947 PWs)   bands (ev):

    -5.3731  -5.2812  -4.9758  -4.9201  -4.9044   4.3533   9.7378  13.4312
    13.6670  18.7629  19.8114

          k = 0.7500-0.0833 0.9167 (  1936 PWs)   bands (ev):

    -5.3428  -5.2618  -4.9899  -4.9552  -4.8914   5.0350   9.2270  11.9495
    13.6510  19.2373  21.3733

          k = 0.6667 0.0000 0.8333 (  1929 PWs)   bands (ev):

    -5.3082  -5.1997  -5.0295  -5.0020  -4.9074   5.1657   9.5747  10.6268
    14.0790  19.5952  23.6741

          k =-0.1667-1.0000-0.0000 (  1940 PWs)   bands (ev):

    -5.3844  -5.2990  -4.9474  -4.9191  -4.8790   5.2454   8.6643  13.2080
    13.3164  18.5746  19.6898

          k = 0.6667-0.3333 1.0000 (  1930 PWs)   bands (ev):

    -5.2647  -5.2113  -5.0998  -4.9759  -4.9608   3.3808  10.7923  12.6339
    15.0083  21.3566  22.3791

          k = 0.5833-0.2500 0.9167 (  1933 PWs)   bands (ev):

    -5.2373  -5.2075  -5.0997  -5.0038  -4.9319   4.2813   9.7161  11.9898
    14.2410  21.5679  23.5596

          k = 0.5000-0.1667 0.8333 (  1930 PWs)   bands (ev):

    -5.2361  -5.1906  -5.0858  -5.0392  -4.9166   4.7428   9.1123  11.8834
    13.9456  21.5755  23.5922

          k = 0.6667-0.1667 1.0000 (  1946 PWs)   bands (ev):

    -5.2857  -5.2386  -5.0593  -4.9696  -4.9055   4.6328   9.8578  11.9947
    13.1331  21.0737  21.9867

          k = 0.5833-0.0833 0.9167 (  1929 PWs)   bands (ev):

    -5.2520  -5.1999  -5.0946  -5.0100  -4.8920   5.1345   9.7621  11.0080
    12.8766  21.6302  23.8497

          k = 0.5000 0.0000 0.8333 (  1932 PWs)   bands (ev):

    -5.2360  -5.1608  -5.1333  -5.0199  -4.9068   4.9539  10.0569  10.6395
    13.3379  21.9596  24.7895

          k =-0.3333-1.0000 0.0000 (  1940 PWs)   bands (ev):

    -5.2935  -5.2507  -5.0256  -4.9896  -4.8790   5.3033   9.3472  11.7765
    12.4443  20.9641  21.8534

          k =-0.5000-1.0000 0.0000 (  1912 PWs)   bands (ev):

    -5.2189  -5.1633  -5.1633  -5.0180  -4.8788   5.3338  10.4180  10.4180
    12.1087  23.0937  24.4576

     the Fermi energy is    11.9202 ev

!    total energy              =    -135.43527158 Ry
     Harris-Foulkes estimate   =    -135.43527158 Ry
     estimated scf accuracy    <          6.0E-10 Ry

     The total energy is the sum of the following terms:

     one-electron contribution =     -31.47628173 Ry
     hartree contribution      =      26.10506355 Ry
     xc contribution           =     -32.62525053 Ry
     ewald contribution        =     -97.43857717 Ry
     smearing contrib. (-TS)   =      -0.00022571 Ry

     convergence has been achieved in   6 iterations

     Writing output data file Pb.save/

     init_run     :      2.42s CPU      2.47s WALL (       1 calls)
     electrons    :     33.39s CPU     34.13s WALL (       1 calls)

     Called by init_run:
     wfcinit      :      1.39s CPU      1.40s WALL (       1 calls)
     potinit      :      0.07s CPU      0.08s WALL (       1 calls)
     hinit0       :      0.83s CPU      0.84s WALL (       1 calls)

     Called by electrons:
     c_bands      :     27.66s CPU     27.82s WALL (       7 calls)
     sum_band     :      4.75s CPU      5.08s WALL (       7 calls)
     v_of_rho     :      0.40s CPU      0.43s WALL (       7 calls)
     newd         :      0.66s CPU      0.92s WALL (       7 calls)
     mix_rho      :      0.04s CPU      0.04s WALL (       7 calls)

     Called by c_bands:
     init_us_2    :      0.59s CPU      0.60s WALL (    1080 calls)
     cegterg      :     26.26s CPU     26.42s WALL (     504 calls)

     Called by sum_band:
     sum_band:bec :      0.00s CPU      0.00s WALL (     504 calls)
     addusdens    :      0.69s CPU      1.00s WALL (       7 calls)

     Called by *egterg:
     h_psi        :     21.32s CPU     21.45s WALL (    1874 calls)
     s_psi        :      1.03s CPU      1.04s WALL (    1874 calls)
     g_psi        :      0.14s CPU      0.14s WALL (    1298 calls)
     cdiaghg      :      0.43s CPU      0.43s WALL (    1730 calls)

     Called by h_psi:
     h_psi:pot    :     21.25s CPU     21.38s WALL (    1874 calls)
     h_psi:calbec :      1.17s CPU      1.17s WALL (    1874 calls)
     vloc_psi     :     19.01s CPU     19.14s WALL (    1874 calls)
     add_vuspsi   :      1.06s CPU      1.06s WALL (    1874 calls)

     General routines
     calbec       :      1.54s CPU      1.54s WALL (    2378 calls)
     fft          :      0.20s CPU      0.20s WALL (      90 calls)
     ffts         :      0.02s CPU      0.02s WALL (      14 calls)
     fftw         :     19.27s CPU     19.40s WALL (   35804 calls)
     interpolate  :      0.03s CPU      0.03s WALL (       7 calls)

     Parallel routines

     PWSCF        :     36.61s CPU     37.44s WALL


   This run was terminated on:  20: 3:45  30Jun2021            

=------------------------------------------------------------------------------=
   JOB DONE.
=------------------------------------------------------------------------------=
