
     Program PWSCF v.6.4.1 starts on 30Jun2021 at 20: 4:21 

     This program is part of the open-source Quantum ESPRESSO suite
     for quantum simulation of materials; please cite
         "P. Giannozzi et al., J. Phys.:Condens. Matter 21 395502 (2009);
         "P. Giannozzi et al., J. Phys.:Condens. Matter 29 465901 (2017);
          URL http://www.quantum-espresso.org", 
     in publications or presentations arising from this work. More details at
     http://www.quantum-espresso.org/quote

     Parallel version (MPI), running on     1 processors

     MPI processes distributed on     1 nodes
     Waiting for input...
     Reading input from standard input

     Current dimensions of program PWSCF are:
     Max number of different atomic species (ntypx) = 10
     Max number of k-points (npk) =  40000
     Max angular momentum in pseudopotentials (lmaxx) =  3
               file Pb.pbe-dn-rrkjus_psl.1.0.0.UPF: wavefunction(s)  6S 5D renormalized

     Subspace diagonalization in iterative solution of the eigenvalue problem:
     a serial algorithm will be used


     G-vector sticks info
     --------------------
     sticks:   dense  smooth     PW     G-vecs:    dense   smooth      PW
     Sum        1639     823    253                43895    15593    2685


     Title: 
     Lead                                                                       


     bravais-lattice index     =            2
     lattice parameter (alat)  =       9.2226  a.u.
     unit-cell volume          =     196.1075 (a.u.)^3
     number of atoms/cell      =            1
     number of atomic types    =            1
     number of electrons       =        14.00
     number of Kohn-Sham states=           11
     kinetic-energy cutoff     =      70.0000  Ry
     charge density cutoff     =     560.0000  Ry
     convergence threshold     =      1.0E-09
     mixing beta               =       0.7000
     number of iterations used =            8  plain     mixing
     Exchange-correlation      = PBE ( 1  4  3  4 0 0)

     celldm(1)=   9.222558  celldm(2)=   0.000000  celldm(3)=   0.000000
     celldm(4)=   0.000000  celldm(5)=   0.000000  celldm(6)=   0.000000

     crystal axes: (cart. coord. in units of alat)
               a(1) = (  -0.500000   0.000000   0.500000 )  
               a(2) = (   0.000000   0.500000   0.500000 )  
               a(3) = (  -0.500000   0.500000   0.000000 )  

     reciprocal axes: (cart. coord. in units 2 pi/alat)
               b(1) = ( -1.000000 -1.000000  1.000000 )  
               b(2) = (  1.000000  1.000000  1.000000 )  
               b(3) = ( -1.000000  1.000000 -1.000000 )  


     PseudoPot. # 1 for Pb read from file:
     /home/elena/qe-6.7/pseudo/Pb.pbe-dn-rrkjus_psl.1.0.0.UPF
     MD5 check sum: 1cf8f5e18580e6a90a35f98a53d336de
     Pseudo is Ultrasoft + core correction, Zval = 14.0
     Generated using "atomic" code by A. Dal Corso v.6.3
     Using radial grid of 1281 points,  6 beta functions with: 
                l(1) =   0
                l(2) =   0
                l(3) =   1
                l(4) =   1
                l(5) =   2
                l(6) =   2
     Q(r) pseudized with 0 coefficients 


     atomic species   valence    mass     pseudopotential
        Pb            14.00   207.20000     Pb( 1.00)

     48 Sym. Ops., with inversion, found



   Cartesian axes

     site n.     atom                  positions (alat units)
         1           Pb  tau(   1) = (   0.0000000   0.0000000   0.0000000  )

     number of k points=    72  Methfessel-Paxton smearing, width (Ry)=  0.0400
                       cart. coord. in units 2pi/alat
        k(    1) = (   0.0000000   0.0000000   0.0000000), wk =   0.0011574
        k(    2) = (  -0.0833333   0.0833333  -0.0833333), wk =   0.0092593
        k(    3) = (  -0.1666667   0.1666667  -0.1666667), wk =   0.0092593
        k(    4) = (  -0.2500000   0.2500000  -0.2500000), wk =   0.0092593
        k(    5) = (  -0.3333333   0.3333333  -0.3333333), wk =   0.0092593
        k(    6) = (  -0.4166667   0.4166667  -0.4166667), wk =   0.0092593
        k(    7) = (   0.5000000  -0.5000000   0.5000000), wk =   0.0046296
        k(    8) = (   0.0000000   0.1666667   0.0000000), wk =   0.0069444
        k(    9) = (  -0.0833333   0.2500000  -0.0833333), wk =   0.0277778
        k(   10) = (  -0.1666667   0.3333333  -0.1666667), wk =   0.0277778
        k(   11) = (  -0.2500000   0.4166667  -0.2500000), wk =   0.0277778
        k(   12) = (  -0.3333333   0.5000000  -0.3333333), wk =   0.0277778
        k(   13) = (   0.5833333  -0.4166667   0.5833333), wk =   0.0277778
        k(   14) = (   0.5000000  -0.3333333   0.5000000), wk =   0.0277778
        k(   15) = (   0.4166667  -0.2500000   0.4166667), wk =   0.0277778
        k(   16) = (   0.3333333  -0.1666667   0.3333333), wk =   0.0277778
        k(   17) = (   0.2500000  -0.0833333   0.2500000), wk =   0.0277778
        k(   18) = (   0.1666667  -0.0000000   0.1666667), wk =   0.0138889
        k(   19) = (   0.0000000   0.3333333   0.0000000), wk =   0.0069444
        k(   20) = (  -0.0833333   0.4166667  -0.0833333), wk =   0.0277778
        k(   21) = (  -0.1666667   0.5000000  -0.1666667), wk =   0.0277778
        k(   22) = (  -0.2500000   0.5833333  -0.2500000), wk =   0.0277778
        k(   23) = (   0.6666667  -0.3333333   0.6666667), wk =   0.0277778
        k(   24) = (   0.5833333  -0.2500000   0.5833333), wk =   0.0277778
        k(   25) = (   0.5000000  -0.1666667   0.5000000), wk =   0.0277778
        k(   26) = (   0.4166667  -0.0833333   0.4166667), wk =   0.0277778
        k(   27) = (   0.3333333   0.0000000   0.3333333), wk =   0.0138889
        k(   28) = (   0.0000000   0.5000000   0.0000000), wk =   0.0069444
        k(   29) = (  -0.0833333   0.5833333  -0.0833333), wk =   0.0277778
        k(   30) = (  -0.1666667   0.6666667  -0.1666667), wk =   0.0277778
        k(   31) = (   0.7500000  -0.2500000   0.7500000), wk =   0.0277778
        k(   32) = (   0.6666667  -0.1666667   0.6666667), wk =   0.0277778
        k(   33) = (   0.5833333  -0.0833333   0.5833333), wk =   0.0277778
        k(   34) = (   0.5000000   0.0000000   0.5000000), wk =   0.0138889
        k(   35) = (   0.0000000   0.6666667   0.0000000), wk =   0.0069444
        k(   36) = (  -0.0833333   0.7500000  -0.0833333), wk =   0.0277778
        k(   37) = (   0.8333333  -0.1666667   0.8333333), wk =   0.0277778
        k(   38) = (   0.7500000  -0.0833333   0.7500000), wk =   0.0277778
        k(   39) = (   0.6666667  -0.0000000   0.6666667), wk =   0.0138889
        k(   40) = (   0.0000000   0.8333333   0.0000000), wk =   0.0069444
        k(   41) = (   0.9166667  -0.0833333   0.9166667), wk =   0.0277778
        k(   42) = (   0.8333333   0.0000000   0.8333333), wk =   0.0138889
        k(   43) = (   0.0000000  -1.0000000   0.0000000), wk =   0.0034722
        k(   44) = (  -0.1666667   0.3333333   0.0000000), wk =   0.0277778
        k(   45) = (  -0.2500000   0.4166667  -0.0833333), wk =   0.0555556
        k(   46) = (  -0.3333333   0.5000000  -0.1666667), wk =   0.0555556
        k(   47) = (   0.5833333  -0.4166667   0.7500000), wk =   0.0555556
        k(   48) = (   0.5000000  -0.3333333   0.6666667), wk =   0.0277778
        k(   49) = (  -0.1666667   0.5000000   0.0000000), wk =   0.0277778
        k(   50) = (  -0.2500000   0.5833333  -0.0833333), wk =   0.0555556
        k(   51) = (   0.6666667  -0.3333333   0.8333333), wk =   0.0555556
        k(   52) = (   0.5833333  -0.2500000   0.7500000), wk =   0.0555556
        k(   53) = (   0.5000000  -0.1666667   0.6666667), wk =   0.0555556
        k(   54) = (   0.4166667  -0.0833333   0.5833333), wk =   0.0555556
        k(   55) = (   0.3333333   0.0000000   0.5000000), wk =   0.0277778
        k(   56) = (  -0.1666667   0.6666667  -0.0000000), wk =   0.0277778
        k(   57) = (   0.7500000  -0.2500000   0.9166667), wk =   0.0555556
        k(   58) = (   0.6666667  -0.1666667   0.8333333), wk =   0.0555556
        k(   59) = (   0.5833333  -0.0833333   0.7500000), wk =   0.0555556
        k(   60) = (   0.5000000   0.0000000   0.6666667), wk =   0.0277778
        k(   61) = (   0.8333333  -0.1666667   1.0000000), wk =   0.0277778
        k(   62) = (   0.7500000  -0.0833333   0.9166667), wk =   0.0555556
        k(   63) = (   0.6666667   0.0000000   0.8333333), wk =   0.0277778
        k(   64) = (  -0.1666667  -1.0000000  -0.0000000), wk =   0.0138889
        k(   65) = (   0.6666667  -0.3333333   1.0000000), wk =   0.0277778
        k(   66) = (   0.5833333  -0.2500000   0.9166667), wk =   0.0555556
        k(   67) = (   0.5000000  -0.1666667   0.8333333), wk =   0.0277778
        k(   68) = (   0.6666667  -0.1666667   1.0000000), wk =   0.0277778
        k(   69) = (   0.5833333  -0.0833333   0.9166667), wk =   0.0555556
        k(   70) = (   0.5000000   0.0000000   0.8333333), wk =   0.0277778
        k(   71) = (  -0.3333333  -1.0000000   0.0000000), wk =   0.0138889
        k(   72) = (  -0.5000000  -1.0000000   0.0000000), wk =   0.0069444

     Dense  grid:    43895 G-vectors     FFT dimensions: (  50,  50,  50)

     Smooth grid:    15593 G-vectors     FFT dimensions: (  36,  36,  36)

     Estimated max dynamical RAM per process >     178.96 MB

     Initial potential from superposition of free atoms

     starting charge   13.99765, renormalised to   14.00000
     Starting wfcs are    9 randomized atomic wfcs +    2 random wfcs

     total cpu time spent up to now is        3.3 secs

     Self-consistent Calculation

     iteration #  1     ecut=    70.00 Ry     beta= 0.70
     Davidson diagonalization with overlap
     ethr =  1.00E-02,  avg # of iterations =  4.2

     Threshold (ethr) on eigenvalues was too large:
     Diagonalizing with lowered threshold

     Davidson diagonalization with overlap
     ethr =  1.61E-05,  avg # of iterations =  3.5

     total cpu time spent up to now is       13.0 secs

     total energy              =    -135.43451115 Ry
     Harris-Foulkes estimate   =    -135.43588197 Ry
     estimated scf accuracy    <       0.00228388 Ry

     iteration #  2     ecut=    70.00 Ry     beta= 0.70
     Davidson diagonalization with overlap
     ethr =  1.63E-05,  avg # of iterations =  2.1

     total cpu time spent up to now is       17.4 secs

     total energy              =    -135.43497344 Ry
     Harris-Foulkes estimate   =    -135.43508769 Ry
     estimated scf accuracy    <       0.00020074 Ry

     iteration #  3     ecut=    70.00 Ry     beta= 0.70
     Davidson diagonalization with overlap
     ethr =  1.43E-06,  avg # of iterations =  2.2

     total cpu time spent up to now is       21.7 secs

     total energy              =    -135.43501518 Ry
     Harris-Foulkes estimate   =    -135.43501622 Ry
     estimated scf accuracy    <       0.00000953 Ry

     iteration #  4     ecut=    70.00 Ry     beta= 0.70
     Davidson diagonalization with overlap
     ethr =  6.81E-08,  avg # of iterations =  2.0

     total cpu time spent up to now is       25.7 secs

     total energy              =    -135.43501633 Ry
     Harris-Foulkes estimate   =    -135.43501627 Ry
     estimated scf accuracy    <       0.00000009 Ry

     iteration #  5     ecut=    70.00 Ry     beta= 0.70
     Davidson diagonalization with overlap
     ethr =  6.69E-10,  avg # of iterations =  2.1

     total cpu time spent up to now is       30.4 secs

     total energy              =    -135.43501636 Ry
     Harris-Foulkes estimate   =    -135.43501637 Ry
     estimated scf accuracy    <       0.00000001 Ry

     iteration #  6     ecut=    70.00 Ry     beta= 0.70
     Davidson diagonalization with overlap
     ethr =  8.69E-11,  avg # of iterations =  2.0

     total cpu time spent up to now is       35.0 secs

     End of self-consistent calculation

          k = 0.0000 0.0000 0.0000 (  1917 PWs)   bands (ev):

    -5.2267  -5.2267  -5.2267  -5.0677  -5.0677  -0.1794  19.6457  19.6457
    19.6457  21.9785  23.7542

          k =-0.0833 0.0833-0.0833 (  1947 PWs)   bands (ev):

    -5.2274  -5.2157  -5.2157  -5.0686  -5.0686  -0.0397  18.0470  19.4669
    19.4669  21.6805  24.3742

          k =-0.1667 0.1667-0.1667 (  1940 PWs)   bands (ev):

    -5.2309  -5.1935  -5.1935  -5.0617  -5.0617   0.3806  15.3553  19.0408
    19.0408  21.3630  24.9136

          k =-0.2500 0.2500-0.2500 (  1949 PWs)   bands (ev):

    -5.2393  -5.1868  -5.1868  -5.0282  -5.0282   1.0786  12.7015  18.5485
    18.5485  21.1658  23.7914

          k =-0.3333 0.3333-0.3333 (  1940 PWs)   bands (ev):

    -5.2515  -5.1975  -5.1975  -4.9759  -4.9759   2.0249  10.3077  18.1157
    18.1157  21.1171  22.8204

          k =-0.4167 0.4167-0.4167 (  1937 PWs)   bands (ev):

    -5.2626  -5.2101  -5.2101  -4.9324  -4.9324   3.0893   8.3609  17.8228
    17.8228  21.2215  22.1019

          k = 0.5000-0.5000 0.5000 (  1946 PWs)   bands (ev):

    -5.2672  -5.2152  -5.2152  -4.9158  -4.9158   3.7036   7.4505  17.7194
    17.7194  21.3872  21.7319

          k = 0.0000 0.1667 0.0000 (  1941 PWs)   bands (ev):

    -5.2396  -5.2049  -5.2049  -5.0810  -5.0585   0.0068  18.5539  18.8549
    18.8549  21.3729  24.5259

          k =-0.0833 0.2500-0.0833 (  1944 PWs)   bands (ev):

    -5.2472  -5.1819  -5.1794  -5.0913  -5.0461   0.3335  16.2639  18.2041
    18.7499  21.3989  23.4617

          k =-0.1667 0.3333-0.1667 (  1938 PWs)   bands (ev):

    -5.2492  -5.1743  -5.1651  -5.0762  -5.0148   0.9394  13.6230  17.6606
    18.2772  21.4480  23.0798

          k =-0.2500 0.4167-0.2500 (  1941 PWs)   bands (ev):

    -5.2521  -5.1889  -5.1715  -5.0296  -4.9669   1.8062  11.1611  17.2999
    17.6684  20.9596  23.2398

          k =-0.3333 0.5000-0.3333 (  1939 PWs)   bands (ev):

    -5.2559  -5.2060  -5.1854  -4.9777  -4.9272   2.8515   9.0594  17.0748
    17.1675  20.6442  23.0949

          k = 0.5833-0.4167 0.5833 (  1941 PWs)   bands (ev):

    -5.2565  -5.2159  -5.1953  -4.9409  -4.9146   3.7166   7.7102  16.6086
    17.2886  20.6192  22.7881

          k = 0.5000-0.3333 0.5000 (  1939 PWs)   bands (ev):

    -5.2518  -5.2146  -5.1960  -4.9358  -4.9313   3.4977   8.0281  16.3467
    17.6623  20.8659  22.5353

          k = 0.4167-0.2500 0.4167 (  1936 PWs)   bands (ev):

    -5.2443  -5.2028  -5.1869  -4.9847  -4.9505   2.4934   9.7111  16.3242
    18.2487  21.3388  22.4536

          k = 0.3333-0.1667 0.3333 (  1938 PWs)   bands (ev):

    -5.2378  -5.1874  -5.1741  -5.0441  -4.9894   1.4906  11.9517  16.5472
    18.9456  21.8380  22.7333

          k = 0.2500-0.0833 0.2500 (  1942 PWs)   bands (ev):

    -5.2344  -5.1811  -5.1763  -5.0823  -5.0299   0.7070  14.4659  17.0210
    19.5519  22.0196  23.6062

          k = 0.1667-0.0000 0.1667 (  1945 PWs)   bands (ev):

    -5.2322  -5.2016  -5.1942  -5.0809  -5.0553   0.1935  16.8475  17.9309
    19.7728  21.8618  24.3199

          k = 0.0000 0.3333 0.0000 (  1960 PWs)   bands (ev):

    -5.2743  -5.1441  -5.1441  -5.1205  -5.0333   0.5663  16.5963  17.3920
    17.3920  20.4344  21.9272

          k =-0.0833 0.4167-0.0833 (  1955 PWs)   bands (ev):

    -5.2872  -5.1523  -5.1154  -5.0989  -5.0069   1.0781  14.5128  16.7480
    16.9952  20.4399  21.1902

          k =-0.1667 0.5000-0.1667 (  1943 PWs)   bands (ev):

    -5.2853  -5.1744  -5.1144  -5.0610  -4.9609   1.8553  12.1382  16.2417
    16.3400  19.9400  22.4294

          k =-0.2500 0.5833-0.2500 (  1943 PWs)   bands (ev):

    -5.2779  -5.1847  -5.1273  -5.0279  -4.9220   2.8394  10.0016  15.4026
    16.2077  19.6447  24.1947

          k = 0.6667-0.3333 0.6667 (  1942 PWs)   bands (ev):

    -5.2682  -5.1869  -5.1406  -4.9988  -4.9114   3.8015   8.4141  14.6905
    16.3721  19.6444  24.6603

          k = 0.5833-0.2500 0.5833 (  1948 PWs)   bands (ev):

    -5.2527  -5.1897  -5.1472  -4.9773  -4.9357   3.9949   8.1449  14.2076
    16.8325  19.9120  24.2249

          k = 0.5000-0.1667 0.5000 (  1943 PWs)   bands (ev):

    -5.2308  -5.1972  -5.1440  -4.9893  -4.9691   3.1715   9.4353  14.0108
    17.5560  20.4394  23.9022

          k = 0.4167-0.0833 0.4167 (  1939 PWs)   bands (ev):

    -5.2156  -5.2010  -5.1316  -5.0572  -4.9769   2.1588  11.3987  14.1640
    18.4509  21.2289  23.6401

          k = 0.3333 0.0000 0.3333 (  1935 PWs)   bands (ev):

    -5.2274  -5.1847  -5.1339  -5.1007  -4.9988   1.3077  13.3393  14.9747
    19.2814  22.2759  23.0789

          k = 0.0000 0.5000 0.0000 (  1964 PWs)   bands (ev):

    -5.3215  -5.1807  -5.0582  -5.0582  -4.9984   1.4946  14.3586  16.0022
    16.0022  19.6545  19.7178

          k =-0.0833 0.5833-0.0833 (  1945 PWs)   bands (ev):

    -5.3334  -5.2082  -5.0400  -5.0201  -4.9600   2.1771  12.7176  15.1377
    15.5068  19.1214  20.1627

          k =-0.1667 0.6667-0.1667 (  1936 PWs)   bands (ev):

    -5.3237  -5.2144  -5.0502  -5.0047  -4.9182   3.0784  10.8742  13.9734
    15.3069  18.8770  21.7946

          k = 0.7500-0.2500 0.7500 (  1941 PWs)   bands (ev):

    -5.3061  -5.1886  -5.0649  -5.0128  -4.9064   4.0342   9.3304  12.9543
    15.4245  18.8848  23.8992

          k = 0.6667-0.1667 0.6667 (  1944 PWs)   bands (ev):

    -5.2853  -5.1452  -5.0770  -5.0331  -4.9308   4.5068   8.7141  12.2242
    15.8585  19.1240  26.1458

          k = 0.5833-0.0833 0.5833 (  1941 PWs)   bands (ev):

    -5.2586  -5.1364  -5.0834  -5.0278  -4.9842   3.9760   9.5278  11.8781
    16.5785  19.5938  25.8266

          k = 0.5000 0.0000 0.5000 (  1947 PWs)   bands (ev):

    -5.2289  -5.1737  -5.0895  -5.0445  -4.9944   3.0354  10.7953  12.3179
    17.5063  20.2989  25.1439

          k = 0.0000 0.6667 0.0000 (  1948 PWs)   bands (ev):

    -5.3683  -5.2467  -4.9692  -4.9692  -4.9634   2.7617  11.9487  14.9148
    14.9148  18.3325  19.1001

          k =-0.0833 0.7500-0.0833 (  1943 PWs)   bands (ev):

    -5.3734  -5.2661  -4.9758  -4.9438  -4.9156   3.5646  10.6965  13.8356
    14.6218  18.2495  19.6337

          k = 0.8333-0.1667 0.8333 (  1941 PWs)   bands (ev):

    -5.3527  -5.2528  -4.9899  -4.9536  -4.8991   4.4414   9.6626  12.3019
    14.6558  18.3272  21.3847

          k = 0.7500-0.0833 0.7500 (  1927 PWs)   bands (ev):

    -5.3242  -5.1964  -5.0069  -4.9961  -4.9189   4.9788   9.3328  10.9809
    15.0185  18.5471  23.6420

          k = 0.6667-0.0000 0.6667 (  1935 PWs)   bands (ev):

    -5.2926  -5.1143  -5.0600  -5.0328  -4.9588   4.7195   9.9768  10.2394
    15.6821  18.9633  26.1525

          k = 0.0000 0.8333 0.0000 (  1956 PWs)   bands (ev):

    -5.4024  -5.2982  -4.9377  -4.9020  -4.9020   4.2459   9.6798  14.2280
    14.2280  17.6098  18.7724

          k = 0.9167-0.0833 0.9167 (  1948 PWs)   bands (ev):

    -5.3964  -5.3015  -4.9412  -4.8981  -4.8866   4.9425   8.8947  13.2331
    14.1628  17.8493  19.3816

          k = 0.8333 0.0000 0.8333 (  1938 PWs)   bands (ev):

    -5.3636  -5.2677  -4.9611  -4.9337  -4.8985   5.2376   8.8976  11.7472
    14.4337  18.1560  21.2466

          k = 0.0000-1.0000 0.0000 (  1964 PWs)   bands (ev):

    -5.4149  -5.3175  -4.9283  -4.8771  -4.8771   5.2187   8.4300  13.9934
    13.9934  17.3871  18.6643

          k =-0.1667 0.3333 0.0000 (  1950 PWs)   bands (ev):

    -5.2565  -5.1650  -5.1469  -5.1055  -5.0233   0.7531  15.0351  16.4556
    18.7781  21.5310  22.3238

          k =-0.2500 0.4167-0.0833 (  1941 PWs)   bands (ev):

    -5.2538  -5.1746  -5.1326  -5.0835  -4.9875   1.4456  12.8582  15.5624
    18.2312  21.3621  22.7274

          k =-0.3333 0.5000-0.1667 (  1938 PWs)   bands (ev):

    -5.2474  -5.1951  -5.1429  -5.0324  -4.9510   2.3756  10.6065  15.1939
    17.4375  20.9192  23.2740

          k = 0.5833-0.4167 0.7500 (  1938 PWs)   bands (ev):

    -5.2416  -5.2145  -5.1514  -4.9880  -4.9277   3.4047   8.7465  15.0723
    16.7892  20.6787  22.9966

          k = 0.5000-0.3333 0.6667 (  1952 PWs)   bands (ev):

    -5.2367  -5.2254  -5.1545  -4.9690  -4.9215   3.9824   7.8878  15.0640
    16.5298  20.6029  22.8616

          k =-0.1667 0.5000 0.0000 (  1945 PWs)   bands (ev):

    -5.2982  -5.1760  -5.0924  -5.0607  -4.9785   1.6760  13.3401  15.1199
    16.7214  20.4620  20.7791

          k =-0.2500 0.5833-0.0833 (  1939 PWs)   bands (ev):

    -5.2889  -5.1928  -5.0953  -5.0256  -4.9460   2.5186  11.5081  14.2374
    15.9590  20.2300  22.1514

          k = 0.6667-0.3333 0.8333 (  1940 PWs)   bands (ev):

    -5.2730  -5.1929  -5.0995  -5.0163  -4.9222   3.5068   9.6889  13.7287
    15.3990  20.1581  23.8999

          k = 0.5833-0.2500 0.7500 (  1942 PWs)   bands (ev):

    -5.2582  -5.1883  -5.0926  -5.0234  -4.9202   4.2761   8.5316  13.2827
    15.3563  20.3004  23.9473

          k = 0.5000-0.1667 0.6667 (  1944 PWs)   bands (ev):

    -5.2397  -5.1938  -5.0934  -5.0207  -4.9423   4.0731   8.8416  12.9732
    15.7820  20.6475  23.6396

          k = 0.4167-0.0833 0.5833 (  1941 PWs)   bands (ev):

    -5.2166  -5.2112  -5.1057  -5.0219  -4.9679   3.1569  10.3147  12.9696
    16.5377  21.1602  23.4960

          k = 0.3333 0.0000 0.5000 (  1937 PWs)   bands (ev):

    -5.2370  -5.1923  -5.1092  -5.0638  -4.9725   2.2061  11.9263  13.6514
    17.4737  21.6473  22.9637

          k =-0.1667 0.6667-0.0000 (  1944 PWs)   bands (ev):

    -5.3403  -5.2324  -5.0313  -4.9706  -4.9390   2.9234  11.5904  14.0849
    14.8028  19.3565  20.1777

          k = 0.7500-0.2500 0.9167 (  1945 PWs)   bands (ev):

    -5.3215  -5.2326  -5.0421  -4.9621  -4.9166   3.8317  10.3149  12.9060
    14.3016  19.5567  21.6414

          k = 0.6667-0.1667 0.8333 (  1929 PWs)   bands (ev):

    -5.2967  -5.1949  -5.0566  -4.9973  -4.9094   4.6348   9.3432  11.8433
    14.3596  19.7339  23.7862

          k = 0.5833-0.0833 0.7500 (  1934 PWs)   bands (ev):

    -5.2724  -5.1396  -5.0775  -5.0364  -4.9326   4.7315   9.3714  11.1476
    14.8150  20.0960  25.4095

          k = 0.5000 0.0000 0.6667 (  1940 PWs)   bands (ev):

    -5.2445  -5.1555  -5.0909  -5.0174  -4.9753   4.0436  10.1178  11.2884
    15.5757  20.6363  25.0032

          k = 0.8333-0.1667 1.0000 (  1947 PWs)   bands (ev):

    -5.3712  -5.2793  -4.9737  -4.9181  -4.9024   4.3541   9.7383  13.4318
    13.6675  18.7633  19.8120

          k = 0.7500-0.0833 0.9167 (  1936 PWs)   bands (ev):

    -5.3408  -5.2599  -4.9879  -4.9532  -4.8894   5.0359   9.2275  11.9500
    13.6515  19.2377  21.3738

          k = 0.6667 0.0000 0.8333 (  1929 PWs)   bands (ev):

    -5.3062  -5.1977  -5.0275  -4.9999  -4.9054   5.1666   9.5752  10.6272
    14.0795  19.5957  23.6746

          k =-0.1667-1.0000-0.0000 (  1940 PWs)   bands (ev):

    -5.3825  -5.2971  -4.9453  -4.9171  -4.8770   5.2463   8.6648  13.2085
    13.3168  18.5750  19.6904

          k = 0.6667-0.3333 1.0000 (  1930 PWs)   bands (ev):

    -5.2627  -5.2094  -5.0978  -4.9739  -4.9588   3.3816  10.7928  12.6344
    15.0088  21.3570  22.3796

          k = 0.5833-0.2500 0.9167 (  1933 PWs)   bands (ev):

    -5.2353  -5.2055  -5.0977  -5.0018  -4.9299   4.2821   9.7166  11.9903
    14.2415  21.5683  23.5601

          k = 0.5000-0.1667 0.8333 (  1930 PWs)   bands (ev):

    -5.2341  -5.1887  -5.0838  -5.0372  -4.9146   4.7436   9.1127  11.8840
    13.9460  21.5759  23.5928

          k = 0.6667-0.1667 1.0000 (  1946 PWs)   bands (ev):

    -5.2838  -5.2366  -5.0574  -4.9676  -4.9035   4.6337   9.8584  11.9952
    13.1335  21.0741  21.9872

          k = 0.5833-0.0833 0.9167 (  1929 PWs)   bands (ev):

    -5.2500  -5.1980  -5.0927  -5.0080  -4.8900   5.1353   9.7626  11.0085
    12.8770  21.6306  23.8502

          k = 0.5000 0.0000 0.8333 (  1932 PWs)   bands (ev):

    -5.2340  -5.1588  -5.1313  -5.0179  -4.9048   4.9548  10.0574  10.6400
    13.3383  21.9600  24.7900

          k =-0.3333-1.0000 0.0000 (  1940 PWs)   bands (ev):

    -5.2916  -5.2487  -5.0236  -4.9876  -4.8770   5.3042   9.3477  11.7770
    12.4447  20.9645  21.8539

          k =-0.5000-1.0000 0.0000 (  1912 PWs)   bands (ev):

    -5.2170  -5.1613  -5.1613  -5.0160  -4.8768   5.3347  10.4185  10.4185
    12.1092  23.0941  24.4581

     the Fermi energy is    11.9110 ev

!    total energy              =    -135.43501636 Ry
     Harris-Foulkes estimate   =    -135.43501636 Ry
     estimated scf accuracy    <          6.1E-10 Ry

     The total energy is the sum of the following terms:

     one-electron contribution =     -31.47680734 Ry
     hartree contribution      =      26.10678647 Ry
     xc contribution           =     -32.62549691 Ry
     ewald contribution        =     -97.43857717 Ry
     smearing contrib. (-TS)   =      -0.00092141 Ry

     convergence has been achieved in   6 iterations

     Writing output data file Pb.save/

     init_run     :      2.33s CPU      2.42s WALL (       1 calls)
     electrons    :     31.02s CPU     31.75s WALL (       1 calls)

     Called by init_run:
     wfcinit      :      1.35s CPU      1.37s WALL (       1 calls)
     potinit      :      0.08s CPU      0.08s WALL (       1 calls)
     hinit0       :      0.80s CPU      0.81s WALL (       1 calls)

     Called by electrons:
     c_bands      :     25.37s CPU     25.47s WALL (       7 calls)
     sum_band     :      4.66s CPU      5.03s WALL (       7 calls)
     v_of_rho     :      0.43s CPU      0.44s WALL (       7 calls)
     newd         :      0.63s CPU      0.94s WALL (       7 calls)
     mix_rho      :      0.04s CPU      0.04s WALL (       7 calls)

     Called by c_bands:
     init_us_2    :      0.57s CPU      0.57s WALL (    1080 calls)
     cegterg      :     24.06s CPU     24.15s WALL (     504 calls)

     Called by sum_band:
     sum_band:bec :      0.00s CPU      0.00s WALL (     504 calls)
     addusdens    :      0.67s CPU      1.01s WALL (       7 calls)

     Called by *egterg:
     h_psi        :     19.52s CPU     19.60s WALL (    1875 calls)
     s_psi        :      0.96s CPU      0.97s WALL (    1875 calls)
     g_psi        :      0.13s CPU      0.13s WALL (    1299 calls)
     cdiaghg      :      0.41s CPU      0.41s WALL (    1731 calls)

     Called by h_psi:
     h_psi:pot    :     19.45s CPU     19.54s WALL (    1875 calls)
     h_psi:calbec :      1.08s CPU      1.09s WALL (    1875 calls)
     vloc_psi     :     17.39s CPU     17.45s WALL (    1875 calls)
     add_vuspsi   :      0.98s CPU      0.99s WALL (    1875 calls)

     General routines
     calbec       :      1.44s CPU      1.45s WALL (    2379 calls)
     fft          :      0.20s CPU      0.20s WALL (      90 calls)
     ffts         :      0.02s CPU      0.02s WALL (      14 calls)
     fftw         :     17.96s CPU     18.04s WALL (   35804 calls)
     interpolate  :      0.03s CPU      0.03s WALL (       7 calls)

     Parallel routines

     PWSCF        :     34.22s CPU     35.07s WALL


   This run was terminated on:  20: 4:56  30Jun2021            

=------------------------------------------------------------------------------=
   JOB DONE.
=------------------------------------------------------------------------------=
