
     Program PWSCF v.6.4.1 starts on 30Jun2021 at 20: 2:30 

     This program is part of the open-source Quantum ESPRESSO suite
     for quantum simulation of materials; please cite
         "P. Giannozzi et al., J. Phys.:Condens. Matter 21 395502 (2009);
         "P. Giannozzi et al., J. Phys.:Condens. Matter 29 465901 (2017);
          URL http://www.quantum-espresso.org", 
     in publications or presentations arising from this work. More details at
     http://www.quantum-espresso.org/quote

     Parallel version (MPI), running on     1 processors

     MPI processes distributed on     1 nodes
     Waiting for input...
     Reading input from standard input

     Current dimensions of program PWSCF are:
     Max number of different atomic species (ntypx) = 10
     Max number of k-points (npk) =  40000
     Max angular momentum in pseudopotentials (lmaxx) =  3
               file Pb.pbe-dn-rrkjus_psl.1.0.0.UPF: wavefunction(s)  6S 5D renormalized

     Subspace diagonalization in iterative solution of the eigenvalue problem:
     a serial algorithm will be used


     G-vector sticks info
     --------------------
     sticks:   dense  smooth     PW     G-vecs:    dense   smooth      PW
     Sum        1639     823    253                43895    15593    2685


     Title: 
     Lead                                                                       


     bravais-lattice index     =            2
     lattice parameter (alat)  =       9.2226  a.u.
     unit-cell volume          =     196.1075 (a.u.)^3
     number of atoms/cell      =            1
     number of atomic types    =            1
     number of electrons       =        14.00
     number of Kohn-Sham states=           11
     kinetic-energy cutoff     =      70.0000  Ry
     charge density cutoff     =     560.0000  Ry
     convergence threshold     =      1.0E-09
     mixing beta               =       0.7000
     number of iterations used =            8  plain     mixing
     Exchange-correlation      = PBE ( 1  4  3  4 0 0)

     celldm(1)=   9.222558  celldm(2)=   0.000000  celldm(3)=   0.000000
     celldm(4)=   0.000000  celldm(5)=   0.000000  celldm(6)=   0.000000

     crystal axes: (cart. coord. in units of alat)
               a(1) = (  -0.500000   0.000000   0.500000 )  
               a(2) = (   0.000000   0.500000   0.500000 )  
               a(3) = (  -0.500000   0.500000   0.000000 )  

     reciprocal axes: (cart. coord. in units 2 pi/alat)
               b(1) = ( -1.000000 -1.000000  1.000000 )  
               b(2) = (  1.000000  1.000000  1.000000 )  
               b(3) = ( -1.000000  1.000000 -1.000000 )  


     PseudoPot. # 1 for Pb read from file:
     /home/elena/qe-6.7/pseudo/Pb.pbe-dn-rrkjus_psl.1.0.0.UPF
     MD5 check sum: 1cf8f5e18580e6a90a35f98a53d336de
     Pseudo is Ultrasoft + core correction, Zval = 14.0
     Generated using "atomic" code by A. Dal Corso v.6.3
     Using radial grid of 1281 points,  6 beta functions with: 
                l(1) =   0
                l(2) =   0
                l(3) =   1
                l(4) =   1
                l(5) =   2
                l(6) =   2
     Q(r) pseudized with 0 coefficients 


     atomic species   valence    mass     pseudopotential
        Pb            14.00   207.20000     Pb( 1.00)

     48 Sym. Ops., with inversion, found



   Cartesian axes

     site n.     atom                  positions (alat units)
         1           Pb  tau(   1) = (   0.0000000   0.0000000   0.0000000  )

     number of k points=    72  Methfessel-Paxton smearing, width (Ry)=  0.0700
                       cart. coord. in units 2pi/alat
        k(    1) = (   0.0000000   0.0000000   0.0000000), wk =   0.0011574
        k(    2) = (  -0.0833333   0.0833333  -0.0833333), wk =   0.0092593
        k(    3) = (  -0.1666667   0.1666667  -0.1666667), wk =   0.0092593
        k(    4) = (  -0.2500000   0.2500000  -0.2500000), wk =   0.0092593
        k(    5) = (  -0.3333333   0.3333333  -0.3333333), wk =   0.0092593
        k(    6) = (  -0.4166667   0.4166667  -0.4166667), wk =   0.0092593
        k(    7) = (   0.5000000  -0.5000000   0.5000000), wk =   0.0046296
        k(    8) = (   0.0000000   0.1666667   0.0000000), wk =   0.0069444
        k(    9) = (  -0.0833333   0.2500000  -0.0833333), wk =   0.0277778
        k(   10) = (  -0.1666667   0.3333333  -0.1666667), wk =   0.0277778
        k(   11) = (  -0.2500000   0.4166667  -0.2500000), wk =   0.0277778
        k(   12) = (  -0.3333333   0.5000000  -0.3333333), wk =   0.0277778
        k(   13) = (   0.5833333  -0.4166667   0.5833333), wk =   0.0277778
        k(   14) = (   0.5000000  -0.3333333   0.5000000), wk =   0.0277778
        k(   15) = (   0.4166667  -0.2500000   0.4166667), wk =   0.0277778
        k(   16) = (   0.3333333  -0.1666667   0.3333333), wk =   0.0277778
        k(   17) = (   0.2500000  -0.0833333   0.2500000), wk =   0.0277778
        k(   18) = (   0.1666667  -0.0000000   0.1666667), wk =   0.0138889
        k(   19) = (   0.0000000   0.3333333   0.0000000), wk =   0.0069444
        k(   20) = (  -0.0833333   0.4166667  -0.0833333), wk =   0.0277778
        k(   21) = (  -0.1666667   0.5000000  -0.1666667), wk =   0.0277778
        k(   22) = (  -0.2500000   0.5833333  -0.2500000), wk =   0.0277778
        k(   23) = (   0.6666667  -0.3333333   0.6666667), wk =   0.0277778
        k(   24) = (   0.5833333  -0.2500000   0.5833333), wk =   0.0277778
        k(   25) = (   0.5000000  -0.1666667   0.5000000), wk =   0.0277778
        k(   26) = (   0.4166667  -0.0833333   0.4166667), wk =   0.0277778
        k(   27) = (   0.3333333   0.0000000   0.3333333), wk =   0.0138889
        k(   28) = (   0.0000000   0.5000000   0.0000000), wk =   0.0069444
        k(   29) = (  -0.0833333   0.5833333  -0.0833333), wk =   0.0277778
        k(   30) = (  -0.1666667   0.6666667  -0.1666667), wk =   0.0277778
        k(   31) = (   0.7500000  -0.2500000   0.7500000), wk =   0.0277778
        k(   32) = (   0.6666667  -0.1666667   0.6666667), wk =   0.0277778
        k(   33) = (   0.5833333  -0.0833333   0.5833333), wk =   0.0277778
        k(   34) = (   0.5000000   0.0000000   0.5000000), wk =   0.0138889
        k(   35) = (   0.0000000   0.6666667   0.0000000), wk =   0.0069444
        k(   36) = (  -0.0833333   0.7500000  -0.0833333), wk =   0.0277778
        k(   37) = (   0.8333333  -0.1666667   0.8333333), wk =   0.0277778
        k(   38) = (   0.7500000  -0.0833333   0.7500000), wk =   0.0277778
        k(   39) = (   0.6666667  -0.0000000   0.6666667), wk =   0.0138889
        k(   40) = (   0.0000000   0.8333333   0.0000000), wk =   0.0069444
        k(   41) = (   0.9166667  -0.0833333   0.9166667), wk =   0.0277778
        k(   42) = (   0.8333333   0.0000000   0.8333333), wk =   0.0138889
        k(   43) = (   0.0000000  -1.0000000   0.0000000), wk =   0.0034722
        k(   44) = (  -0.1666667   0.3333333   0.0000000), wk =   0.0277778
        k(   45) = (  -0.2500000   0.4166667  -0.0833333), wk =   0.0555556
        k(   46) = (  -0.3333333   0.5000000  -0.1666667), wk =   0.0555556
        k(   47) = (   0.5833333  -0.4166667   0.7500000), wk =   0.0555556
        k(   48) = (   0.5000000  -0.3333333   0.6666667), wk =   0.0277778
        k(   49) = (  -0.1666667   0.5000000   0.0000000), wk =   0.0277778
        k(   50) = (  -0.2500000   0.5833333  -0.0833333), wk =   0.0555556
        k(   51) = (   0.6666667  -0.3333333   0.8333333), wk =   0.0555556
        k(   52) = (   0.5833333  -0.2500000   0.7500000), wk =   0.0555556
        k(   53) = (   0.5000000  -0.1666667   0.6666667), wk =   0.0555556
        k(   54) = (   0.4166667  -0.0833333   0.5833333), wk =   0.0555556
        k(   55) = (   0.3333333   0.0000000   0.5000000), wk =   0.0277778
        k(   56) = (  -0.1666667   0.6666667  -0.0000000), wk =   0.0277778
        k(   57) = (   0.7500000  -0.2500000   0.9166667), wk =   0.0555556
        k(   58) = (   0.6666667  -0.1666667   0.8333333), wk =   0.0555556
        k(   59) = (   0.5833333  -0.0833333   0.7500000), wk =   0.0555556
        k(   60) = (   0.5000000   0.0000000   0.6666667), wk =   0.0277778
        k(   61) = (   0.8333333  -0.1666667   1.0000000), wk =   0.0277778
        k(   62) = (   0.7500000  -0.0833333   0.9166667), wk =   0.0555556
        k(   63) = (   0.6666667   0.0000000   0.8333333), wk =   0.0277778
        k(   64) = (  -0.1666667  -1.0000000  -0.0000000), wk =   0.0138889
        k(   65) = (   0.6666667  -0.3333333   1.0000000), wk =   0.0277778
        k(   66) = (   0.5833333  -0.2500000   0.9166667), wk =   0.0555556
        k(   67) = (   0.5000000  -0.1666667   0.8333333), wk =   0.0277778
        k(   68) = (   0.6666667  -0.1666667   1.0000000), wk =   0.0277778
        k(   69) = (   0.5833333  -0.0833333   0.9166667), wk =   0.0555556
        k(   70) = (   0.5000000   0.0000000   0.8333333), wk =   0.0277778
        k(   71) = (  -0.3333333  -1.0000000   0.0000000), wk =   0.0138889
        k(   72) = (  -0.5000000  -1.0000000   0.0000000), wk =   0.0069444

     Dense  grid:    43895 G-vectors     FFT dimensions: (  50,  50,  50)

     Smooth grid:    15593 G-vectors     FFT dimensions: (  36,  36,  36)

     Estimated max dynamical RAM per process >     178.96 MB

     Initial potential from superposition of free atoms

     starting charge   13.99765, renormalised to   14.00000
     Starting wfcs are    9 randomized atomic wfcs +    2 random wfcs

     total cpu time spent up to now is        3.0 secs

     Self-consistent Calculation

     iteration #  1     ecut=    70.00 Ry     beta= 0.70
     Davidson diagonalization with overlap
     ethr =  1.00E-02,  avg # of iterations =  4.2

     Threshold (ethr) on eigenvalues was too large:
     Diagonalizing with lowered threshold

     Davidson diagonalization with overlap
     ethr =  1.64E-05,  avg # of iterations =  3.5

     total cpu time spent up to now is       13.1 secs

     total energy              =    -135.43476445 Ry
     Harris-Foulkes estimate   =    -135.43615351 Ry
     estimated scf accuracy    <       0.00231903 Ry

     iteration #  2     ecut=    70.00 Ry     beta= 0.70
     Davidson diagonalization with overlap
     ethr =  1.66E-05,  avg # of iterations =  2.1

     total cpu time spent up to now is       17.8 secs

     total energy              =    -135.43523303 Ry
     Harris-Foulkes estimate   =    -135.43534868 Ry
     estimated scf accuracy    <       0.00020370 Ry

     iteration #  3     ecut=    70.00 Ry     beta= 0.70
     Davidson diagonalization with overlap
     ethr =  1.46E-06,  avg # of iterations =  2.2

     total cpu time spent up to now is       22.4 secs

     total energy              =    -135.43527531 Ry
     Harris-Foulkes estimate   =    -135.43527637 Ry
     estimated scf accuracy    <       0.00000970 Ry

     iteration #  4     ecut=    70.00 Ry     beta= 0.70
     Davidson diagonalization with overlap
     ethr =  6.93E-08,  avg # of iterations =  2.0

     total cpu time spent up to now is       26.4 secs

     total energy              =    -135.43527648 Ry
     Harris-Foulkes estimate   =    -135.43527642 Ry
     estimated scf accuracy    <       0.00000010 Ry

     iteration #  5     ecut=    70.00 Ry     beta= 0.70
     Davidson diagonalization with overlap
     ethr =  6.81E-10,  avg # of iterations =  2.1

     total cpu time spent up to now is       31.2 secs

     total energy              =    -135.43527651 Ry
     Harris-Foulkes estimate   =    -135.43527652 Ry
     estimated scf accuracy    <       0.00000001 Ry

     iteration #  6     ecut=    70.00 Ry     beta= 0.70
     Davidson diagonalization with overlap
     ethr =  8.88E-11,  avg # of iterations =  2.0

     total cpu time spent up to now is       36.7 secs

     End of self-consistent calculation

          k = 0.0000 0.0000 0.0000 (  1917 PWs)   bands (ev):

    -5.2293  -5.2293  -5.2293  -5.0702  -5.0702  -0.1803  19.6449  19.6449
    19.6449  21.9779  23.7533

          k =-0.0833 0.0833-0.0833 (  1947 PWs)   bands (ev):

    -5.2300  -5.2182  -5.2182  -5.0712  -5.0712  -0.0406  18.0463  19.4661
    19.4661  21.6799  24.3734

          k =-0.1667 0.1667-0.1667 (  1940 PWs)   bands (ev):

    -5.2335  -5.1961  -5.1961  -5.0643  -5.0643   0.3798  15.3546  19.0401
    19.0401  21.3623  24.9131

          k =-0.2500 0.2500-0.2500 (  1949 PWs)   bands (ev):

    -5.2419  -5.1894  -5.1894  -5.0308  -5.0308   1.0777  12.7007  18.5477
    18.5477  21.1651  23.7908

          k =-0.3333 0.3333-0.3333 (  1940 PWs)   bands (ev):

    -5.2540  -5.2001  -5.2001  -4.9785  -4.9785   2.0240  10.3070  18.1149
    18.1149  21.1164  22.8198

          k =-0.4167 0.4167-0.4167 (  1937 PWs)   bands (ev):

    -5.2651  -5.2126  -5.2126  -4.9350  -4.9350   3.0883   8.3602  17.8220
    17.8220  21.2209  22.1011

          k = 0.5000-0.5000 0.5000 (  1946 PWs)   bands (ev):

    -5.2697  -5.2178  -5.2178  -4.9184  -4.9184   3.7025   7.4500  17.7186
    17.7186  21.3868  21.7309

          k = 0.0000 0.1667 0.0000 (  1941 PWs)   bands (ev):

    -5.2421  -5.2075  -5.2075  -5.0836  -5.0611   0.0059  18.5530  18.8541
    18.8541  21.3723  24.5253

          k =-0.0833 0.2500-0.0833 (  1944 PWs)   bands (ev):

    -5.2497  -5.1844  -5.1820  -5.0939  -5.0487   0.3326  16.2631  18.2034
    18.7491  21.3982  23.4612

          k =-0.1667 0.3333-0.1667 (  1938 PWs)   bands (ev):

    -5.2517  -5.1769  -5.1676  -5.0788  -5.0174   0.9385  13.6223  17.6599
    18.2764  21.4474  23.0792

          k =-0.2500 0.4167-0.2500 (  1941 PWs)   bands (ev):

    -5.2547  -5.1914  -5.1741  -5.0322  -4.9695   1.8053  11.1603  17.2992
    17.6676  20.9591  23.2390

          k =-0.3333 0.5000-0.3333 (  1939 PWs)   bands (ev):

    -5.2584  -5.2085  -5.1879  -4.9803  -4.9298   2.8505   9.0588  17.0740
    17.1668  20.6437  23.0940

          k = 0.5833-0.4167 0.5833 (  1941 PWs)   bands (ev):

    -5.2590  -5.2184  -5.1979  -4.9435  -4.9172   3.7155   7.7097  16.6078
    17.2878  20.6187  22.7872

          k = 0.5000-0.3333 0.5000 (  1939 PWs)   bands (ev):

    -5.2544  -5.2172  -5.1985  -4.9384  -4.9339   3.4966   8.0275  16.3460
    17.6615  20.8655  22.5344

          k = 0.4167-0.2500 0.4167 (  1936 PWs)   bands (ev):

    -5.2469  -5.2053  -5.1895  -4.9873  -4.9532   2.4924   9.7104  16.3234
    18.2479  21.3384  22.4527

          k = 0.3333-0.1667 0.3333 (  1938 PWs)   bands (ev):

    -5.2403  -5.1900  -5.1766  -5.0467  -4.9920   1.4897  11.9509  16.5464
    18.9448  21.8374  22.7325

          k = 0.2500-0.0833 0.2500 (  1942 PWs)   bands (ev):

    -5.2369  -5.1837  -5.1789  -5.0849  -5.0325   0.7061  14.4652  17.0202
    19.5511  22.0189  23.6057

          k = 0.1667-0.0000 0.1667 (  1945 PWs)   bands (ev):

    -5.2348  -5.2041  -5.1967  -5.0835  -5.0579   0.1927  16.8467  17.9301
    19.7720  21.8612  24.3192

          k = 0.0000 0.3333 0.0000 (  1960 PWs)   bands (ev):

    -5.2769  -5.1467  -5.1467  -5.1230  -5.0359   0.5654  16.5954  17.3913
    17.3913  20.4337  21.9268

          k =-0.0833 0.4167-0.0833 (  1955 PWs)   bands (ev):

    -5.2897  -5.1548  -5.1180  -5.1015  -5.0095   1.0772  14.5120  16.7473
    16.9943  20.4393  21.1897

          k =-0.1667 0.5000-0.1667 (  1943 PWs)   bands (ev):

    -5.2879  -5.1769  -5.1170  -5.0636  -4.9635   1.8544  12.1374  16.2409
    16.3393  19.9395  22.4287

          k =-0.2500 0.5833-0.2500 (  1943 PWs)   bands (ev):

    -5.2804  -5.1873  -5.1299  -5.0305  -4.9247   2.8385  10.0009  15.4018
    16.2070  19.6442  24.1940

          k = 0.6667-0.3333 0.6667 (  1942 PWs)   bands (ev):

    -5.2708  -5.1895  -5.1431  -5.0014  -4.9140   3.8005   8.4135  14.6897
    16.3714  19.6438  24.6595

          k = 0.5833-0.2500 0.5833 (  1948 PWs)   bands (ev):

    -5.2552  -5.1922  -5.1498  -4.9799  -4.9383   3.9938   8.1444  14.2068
    16.8317  19.9114  24.2241

          k = 0.5000-0.1667 0.5000 (  1943 PWs)   bands (ev):

    -5.2334  -5.1997  -5.1466  -4.9919  -4.9717   3.1705   9.4346  14.0100
    17.5552  20.4389  23.9014

          k = 0.4167-0.0833 0.4167 (  1939 PWs)   bands (ev):

    -5.2181  -5.2036  -5.1342  -5.0597  -4.9795   2.1578  11.3979  14.1633
    18.4501  21.2283  23.6394

          k = 0.3333 0.0000 0.3333 (  1935 PWs)   bands (ev):

    -5.2300  -5.1872  -5.1364  -5.1032  -5.0014   1.3068  13.3385  14.9740
    19.2805  22.2754  23.0782

          k = 0.0000 0.5000 0.0000 (  1964 PWs)   bands (ev):

    -5.3240  -5.1832  -5.0608  -5.0608  -5.0011   1.4937  14.3577  16.0015
    16.0015  19.6538  19.7174

          k =-0.0833 0.5833-0.0833 (  1945 PWs)   bands (ev):

    -5.3359  -5.2107  -5.0426  -5.0227  -4.9626   2.1762  12.7167  15.1370
    15.5061  19.1209  20.1621

          k =-0.1667 0.6667-0.1667 (  1936 PWs)   bands (ev):

    -5.3262  -5.2170  -5.0528  -5.0073  -4.9209   3.0775  10.8735  13.9726
    15.3062  18.8765  21.7940

          k = 0.7500-0.2500 0.7500 (  1941 PWs)   bands (ev):

    -5.3086  -5.1912  -5.0675  -5.0154  -4.9090   4.0332   9.3298  12.9536
    15.4238  18.8842  23.8986

          k = 0.6667-0.1667 0.6667 (  1944 PWs)   bands (ev):

    -5.2878  -5.1478  -5.0796  -5.0357  -4.9334   4.5057   8.7136  12.2235
    15.8578  19.1235  26.1451

          k = 0.5833-0.0833 0.5833 (  1941 PWs)   bands (ev):

    -5.2611  -5.1390  -5.0859  -5.0304  -4.9868   3.9749   9.5271  11.8774
    16.5777  19.5932  25.8259

          k = 0.5000 0.0000 0.5000 (  1947 PWs)   bands (ev):

    -5.2314  -5.1762  -5.0920  -5.0471  -4.9970   3.0345  10.7946  12.3172
    17.5055  20.2983  25.1433

          k = 0.0000 0.6667 0.0000 (  1948 PWs)   bands (ev):

    -5.3708  -5.2492  -4.9718  -4.9718  -4.9660   2.7607  11.9479  14.9141
    14.9141  18.3320  19.0993

          k =-0.0833 0.7500-0.0833 (  1943 PWs)   bands (ev):

    -5.3759  -5.2687  -4.9784  -4.9464  -4.9183   3.5636  10.6957  13.8350
    14.6211  18.2490  19.6329

          k = 0.8333-0.1667 0.8333 (  1941 PWs)   bands (ev):

    -5.3552  -5.2554  -4.9925  -4.9562  -4.9017   4.4404   9.6619  12.3012
    14.6551  18.3266  21.3840

          k = 0.7500-0.0833 0.7500 (  1927 PWs)   bands (ev):

    -5.3267  -5.1990  -5.0095  -4.9987  -4.9215   4.9776   9.3321  10.9803
    15.0178  18.5465  23.6413

          k = 0.6667-0.0000 0.6667 (  1935 PWs)   bands (ev):

    -5.2951  -5.1168  -5.0626  -5.0354  -4.9614   4.7184   9.9762  10.2387
    15.6814  18.9627  26.1518

          k = 0.0000 0.8333 0.0000 (  1956 PWs)   bands (ev):

    -5.4049  -5.3007  -4.9403  -4.9046  -4.9046   4.2449   9.6790  14.2273
    14.2273  17.6092  18.7717

          k = 0.9167-0.0833 0.9167 (  1948 PWs)   bands (ev):

    -5.3989  -5.3040  -4.9438  -4.9008  -4.8892   4.9414   8.8941  13.2325
    14.1621  17.8487  19.3809

          k = 0.8333 0.0000 0.8333 (  1938 PWs)   bands (ev):

    -5.3661  -5.2702  -4.9637  -4.9363  -4.9011   5.2364   8.8969  11.7466
    14.4331  18.1554  21.2459

          k = 0.0000-1.0000 0.0000 (  1964 PWs)   bands (ev):

    -5.4174  -5.3200  -4.9309  -4.8797  -4.8797   5.2176   8.4294  13.9928
    13.9928  17.3865  18.6636

          k =-0.1667 0.3333 0.0000 (  1950 PWs)   bands (ev):

    -5.2591  -5.1675  -5.1495  -5.1081  -5.0259   0.7522  15.0343  16.4549
    18.7773  21.5304  22.3234

          k =-0.2500 0.4167-0.0833 (  1941 PWs)   bands (ev):

    -5.2564  -5.1772  -5.1352  -5.0861  -4.9901   1.4447  12.8574  15.5616
    18.2304  21.3616  22.7267

          k =-0.3333 0.5000-0.1667 (  1938 PWs)   bands (ev):

    -5.2500  -5.1977  -5.1454  -5.0350  -4.9536   2.3747  10.6057  15.1931
    17.4367  20.9187  23.2732

          k = 0.5833-0.4167 0.7500 (  1938 PWs)   bands (ev):

    -5.2442  -5.2171  -5.1540  -4.9906  -4.9303   3.4037   8.7459  15.0715
    16.7885  20.6782  22.9958

          k = 0.5000-0.3333 0.6667 (  1952 PWs)   bands (ev):

    -5.2393  -5.2279  -5.1571  -4.9716  -4.9241   3.9813   7.8873  15.0632
    16.5291  20.6024  22.8608

          k =-0.1667 0.5000 0.0000 (  1945 PWs)   bands (ev):

    -5.3007  -5.1785  -5.0950  -5.0633  -4.9811   1.6751  13.3393  15.1191
    16.7206  20.4615  20.7784

          k =-0.2500 0.5833-0.0833 (  1939 PWs)   bands (ev):

    -5.2914  -5.1953  -5.0979  -5.0282  -4.9486   2.5176  11.5073  14.2366
    15.9583  20.2295  22.1507

          k = 0.6667-0.3333 0.8333 (  1940 PWs)   bands (ev):

    -5.2755  -5.1954  -5.1021  -5.0188  -4.9249   3.5057   9.6882  13.7279
    15.3984  20.1575  23.8992

          k = 0.5833-0.2500 0.7500 (  1942 PWs)   bands (ev):

    -5.2607  -5.1908  -5.0952  -5.0260  -4.9228   4.2750   8.5310  13.2819
    15.3557  20.2998  23.9466

          k = 0.5000-0.1667 0.6667 (  1944 PWs)   bands (ev):

    -5.2422  -5.1964  -5.0960  -5.0233  -4.9449   4.0721   8.8410  12.9725
    15.7813  20.6469  23.6388

          k = 0.4167-0.0833 0.5833 (  1941 PWs)   bands (ev):

    -5.2191  -5.2137  -5.1083  -5.0245  -4.9705   3.1560  10.3140  12.9688
    16.5370  21.1597  23.4953

          k = 0.3333 0.0000 0.5000 (  1937 PWs)   bands (ev):

    -5.2396  -5.1949  -5.1118  -5.0664  -4.9751   2.2052  11.9255  13.6507
    17.4730  21.6468  22.9630

          k =-0.1667 0.6667-0.0000 (  1944 PWs)   bands (ev):

    -5.3429  -5.2349  -5.0338  -4.9732  -4.9416   2.9225  11.5896  14.0842
    14.8021  19.3559  20.1769

          k = 0.7500-0.2500 0.9167 (  1945 PWs)   bands (ev):

    -5.3240  -5.2352  -5.0446  -4.9647  -4.9192   3.8307  10.3141  12.9053
    14.3010  19.5561  21.6407

          k = 0.6667-0.1667 0.8333 (  1929 PWs)   bands (ev):

    -5.2993  -5.1975  -5.0591  -4.9999  -4.9120   4.6337   9.3425  11.8426
    14.3590  19.7333  23.7855

          k = 0.5833-0.0833 0.7500 (  1934 PWs)   bands (ev):

    -5.2749  -5.1422  -5.0801  -5.0390  -4.9352   4.7303   9.3708  11.1469
    14.8144  20.0953  25.4088

          k = 0.5000 0.0000 0.6667 (  1940 PWs)   bands (ev):

    -5.2470  -5.1580  -5.0935  -5.0200  -4.9779   4.0426  10.1171  11.2877
    15.5750  20.6357  25.0026

          k = 0.8333-0.1667 1.0000 (  1947 PWs)   bands (ev):

    -5.3737  -5.2818  -4.9764  -4.9207  -4.9050   4.3531   9.7376  13.4311
    13.6668  18.7627  19.8112

          k = 0.7500-0.0833 0.9167 (  1936 PWs)   bands (ev):

    -5.3434  -5.2624  -4.9905  -4.9558  -4.8920   5.0348   9.2268  11.9494
    13.6508  19.2371  21.3731

          k = 0.6667 0.0000 0.8333 (  1929 PWs)   bands (ev):

    -5.3088  -5.2003  -5.0301  -5.0025  -4.9080   5.1655   9.5746  10.6266
    14.0789  19.5951  23.6739

          k =-0.1667-1.0000-0.0000 (  1940 PWs)   bands (ev):

    -5.3850  -5.2996  -4.9480  -4.9197  -4.8796   5.2451   8.6642  13.2078
    13.3162  18.5744  19.6896

          k = 0.6667-0.3333 1.0000 (  1930 PWs)   bands (ev):

    -5.2652  -5.2119  -5.1004  -4.9765  -4.9614   3.3806  10.7921  12.6337
    15.0081  21.3565  22.3789

          k = 0.5833-0.2500 0.9167 (  1933 PWs)   bands (ev):

    -5.2379  -5.2081  -5.1002  -5.0044  -4.9325   4.2810   9.7160  11.9896
    14.2408  21.5677  23.5594

          k = 0.5000-0.1667 0.8333 (  1930 PWs)   bands (ev):

    -5.2366  -5.1912  -5.0864  -5.0398  -4.9172   4.7425   9.1121  11.8832
    13.9454  21.5753  23.5921

          k = 0.6667-0.1667 1.0000 (  1946 PWs)   bands (ev):

    -5.2863  -5.2391  -5.0599  -4.9702  -4.9061   4.6326   9.8577  11.9945
    13.1329  21.0735  21.9865

          k = 0.5833-0.0833 0.9167 (  1929 PWs)   bands (ev):

    -5.2526  -5.2005  -5.0952  -5.0106  -4.8927   5.1342   9.7619  11.0078
    12.8764  21.6300  23.8495

          k = 0.5000 0.0000 0.8333 (  1932 PWs)   bands (ev):

    -5.2366  -5.1614  -5.1339  -5.0204  -4.9074   4.9536  10.0568  10.6394
    13.3377  21.9594  24.7893

          k =-0.3333-1.0000 0.0000 (  1940 PWs)   bands (ev):

    -5.2941  -5.2513  -5.0262  -4.9902  -4.8796   5.3030   9.3470  11.7763
    12.4441  20.9639  21.8532

          k =-0.5000-1.0000 0.0000 (  1912 PWs)   bands (ev):

    -5.2195  -5.1639  -5.1639  -5.0186  -4.8794   5.3335  10.4179  10.4179
    12.1086  23.0935  24.4575

     the Fermi energy is    11.9240 ev

!    total energy              =    -135.43527651 Ry
     Harris-Foulkes estimate   =    -135.43527651 Ry
     estimated scf accuracy    <          6.1E-10 Ry

     The total energy is the sum of the following terms:

     one-electron contribution =     -31.47623194 Ry
     hartree contribution      =      26.10453819 Ry
     xc contribution           =     -32.62518200 Ry
     ewald contribution        =     -97.43857717 Ry
     smearing contrib. (-TS)   =       0.00017640 Ry

     convergence has been achieved in   6 iterations

     Writing output data file Pb.save/

     init_run     :      2.16s CPU      2.22s WALL (       1 calls)
     electrons    :     32.91s CPU     33.68s WALL (       1 calls)

     Called by init_run:
     wfcinit      :      1.18s CPU      1.20s WALL (       1 calls)
     potinit      :      0.08s CPU      0.08s WALL (       1 calls)
     hinit0       :      0.79s CPU      0.79s WALL (       1 calls)

     Called by electrons:
     c_bands      :     27.04s CPU     27.28s WALL (       7 calls)
     sum_band     :      4.90s CPU      5.22s WALL (       7 calls)
     v_of_rho     :      0.41s CPU      0.42s WALL (       7 calls)
     newd         :      0.63s CPU      0.87s WALL (       7 calls)
     mix_rho      :      0.04s CPU      0.04s WALL (       7 calls)

     Called by c_bands:
     init_us_2    :      0.58s CPU      0.58s WALL (    1080 calls)
     cegterg      :     25.65s CPU     25.87s WALL (     504 calls)

     Called by sum_band:
     sum_band:bec :      0.00s CPU      0.00s WALL (     504 calls)
     addusdens    :      0.77s CPU      1.06s WALL (       7 calls)

     Called by *egterg:
     h_psi        :     20.73s CPU     20.90s WALL (    1874 calls)
     s_psi        :      1.00s CPU      1.00s WALL (    1874 calls)
     g_psi        :      0.13s CPU      0.13s WALL (    1298 calls)
     cdiaghg      :      0.42s CPU      0.43s WALL (    1730 calls)

     Called by h_psi:
     h_psi:pot    :     20.65s CPU     20.83s WALL (    1874 calls)
     h_psi:calbec :      1.13s CPU      1.13s WALL (    1874 calls)
     vloc_psi     :     18.50s CPU     18.66s WALL (    1874 calls)
     add_vuspsi   :      1.02s CPU      1.03s WALL (    1874 calls)

     General routines
     calbec       :      1.49s CPU      1.50s WALL (    2378 calls)
     fft          :      0.19s CPU      0.19s WALL (      90 calls)
     ffts         :      0.02s CPU      0.02s WALL (      14 calls)
     fftw         :     18.94s CPU     19.11s WALL (   35816 calls)
     interpolate  :      0.03s CPU      0.03s WALL (       7 calls)

     Parallel routines

     PWSCF        :     35.91s CPU     36.78s WALL


   This run was terminated on:  20: 3: 6  30Jun2021            

=------------------------------------------------------------------------------=
   JOB DONE.
=------------------------------------------------------------------------------=
