
     Program PWSCF v.6.4.1 starts on 30Jun2021 at 19:58:12 

     This program is part of the open-source Quantum ESPRESSO suite
     for quantum simulation of materials; please cite
         "P. Giannozzi et al., J. Phys.:Condens. Matter 21 395502 (2009);
         "P. Giannozzi et al., J. Phys.:Condens. Matter 29 465901 (2017);
          URL http://www.quantum-espresso.org", 
     in publications or presentations arising from this work. More details at
     http://www.quantum-espresso.org/quote

     Parallel version (MPI), running on     1 processors

     MPI processes distributed on     1 nodes
     Waiting for input...
     Reading input from standard input

     Current dimensions of program PWSCF are:
     Max number of different atomic species (ntypx) = 10
     Max number of k-points (npk) =  40000
     Max angular momentum in pseudopotentials (lmaxx) =  3
               file Pb.pbe-dn-rrkjus_psl.1.0.0.UPF: wavefunction(s)  6S 5D renormalized

     Subspace diagonalization in iterative solution of the eigenvalue problem:
     a serial algorithm will be used


     G-vector sticks info
     --------------------
     sticks:   dense  smooth     PW     G-vecs:    dense   smooth      PW
     Sum        1639     823    253                43895    15593    2685


     Title: 
     Lead                                                                       


     bravais-lattice index     =            2
     lattice parameter (alat)  =       9.2226  a.u.
     unit-cell volume          =     196.1075 (a.u.)^3
     number of atoms/cell      =            1
     number of atomic types    =            1
     number of electrons       =        14.00
     number of Kohn-Sham states=           11
     kinetic-energy cutoff     =      70.0000  Ry
     charge density cutoff     =     560.0000  Ry
     convergence threshold     =      1.0E-09
     mixing beta               =       0.7000
     number of iterations used =            8  plain     mixing
     Exchange-correlation      = PBE ( 1  4  3  4 0 0)

     celldm(1)=   9.222558  celldm(2)=   0.000000  celldm(3)=   0.000000
     celldm(4)=   0.000000  celldm(5)=   0.000000  celldm(6)=   0.000000

     crystal axes: (cart. coord. in units of alat)
               a(1) = (  -0.500000   0.000000   0.500000 )  
               a(2) = (   0.000000   0.500000   0.500000 )  
               a(3) = (  -0.500000   0.500000   0.000000 )  

     reciprocal axes: (cart. coord. in units 2 pi/alat)
               b(1) = ( -1.000000 -1.000000  1.000000 )  
               b(2) = (  1.000000  1.000000  1.000000 )  
               b(3) = ( -1.000000  1.000000 -1.000000 )  


     PseudoPot. # 1 for Pb read from file:
     /home/elena/qe-6.7/pseudo/Pb.pbe-dn-rrkjus_psl.1.0.0.UPF
     MD5 check sum: 1cf8f5e18580e6a90a35f98a53d336de
     Pseudo is Ultrasoft + core correction, Zval = 14.0
     Generated using "atomic" code by A. Dal Corso v.6.3
     Using radial grid of 1281 points,  6 beta functions with: 
                l(1) =   0
                l(2) =   0
                l(3) =   1
                l(4) =   1
                l(5) =   2
                l(6) =   2
     Q(r) pseudized with 0 coefficients 


     atomic species   valence    mass     pseudopotential
        Pb            14.00   207.20000     Pb( 1.00)

     48 Sym. Ops., with inversion, found



   Cartesian axes

     site n.     atom                  positions (alat units)
         1           Pb  tau(   1) = (   0.0000000   0.0000000   0.0000000  )

     number of k points=    47  Methfessel-Paxton smearing, width (Ry)=  0.0600
                       cart. coord. in units 2pi/alat
        k(    1) = (   0.0000000   0.0000000   0.0000000), wk =   0.0020000
        k(    2) = (  -0.1000000   0.1000000  -0.1000000), wk =   0.0160000
        k(    3) = (  -0.2000000   0.2000000  -0.2000000), wk =   0.0160000
        k(    4) = (  -0.3000000   0.3000000  -0.3000000), wk =   0.0160000
        k(    5) = (  -0.4000000   0.4000000  -0.4000000), wk =   0.0160000
        k(    6) = (   0.5000000  -0.5000000   0.5000000), wk =   0.0080000
        k(    7) = (   0.0000000   0.2000000   0.0000000), wk =   0.0120000
        k(    8) = (  -0.1000000   0.3000000  -0.1000000), wk =   0.0480000
        k(    9) = (  -0.2000000   0.4000000  -0.2000000), wk =   0.0480000
        k(   10) = (  -0.3000000   0.5000000  -0.3000000), wk =   0.0480000
        k(   11) = (   0.6000000  -0.4000000   0.6000000), wk =   0.0480000
        k(   12) = (   0.5000000  -0.3000000   0.5000000), wk =   0.0480000
        k(   13) = (   0.4000000  -0.2000000   0.4000000), wk =   0.0480000
        k(   14) = (   0.3000000  -0.1000000   0.3000000), wk =   0.0480000
        k(   15) = (   0.2000000   0.0000000   0.2000000), wk =   0.0240000
        k(   16) = (   0.0000000   0.4000000   0.0000000), wk =   0.0120000
        k(   17) = (  -0.1000000   0.5000000  -0.1000000), wk =   0.0480000
        k(   18) = (  -0.2000000   0.6000000  -0.2000000), wk =   0.0480000
        k(   19) = (   0.7000000  -0.3000000   0.7000000), wk =   0.0480000
        k(   20) = (   0.6000000  -0.2000000   0.6000000), wk =   0.0480000
        k(   21) = (   0.5000000  -0.1000000   0.5000000), wk =   0.0480000
        k(   22) = (   0.4000000   0.0000000   0.4000000), wk =   0.0240000
        k(   23) = (   0.0000000   0.6000000   0.0000000), wk =   0.0120000
        k(   24) = (  -0.1000000   0.7000000  -0.1000000), wk =   0.0480000
        k(   25) = (   0.8000000  -0.2000000   0.8000000), wk =   0.0480000
        k(   26) = (   0.7000000  -0.1000000   0.7000000), wk =   0.0480000
        k(   27) = (   0.6000000  -0.0000000   0.6000000), wk =   0.0240000
        k(   28) = (   0.0000000   0.8000000   0.0000000), wk =   0.0120000
        k(   29) = (   0.9000000  -0.1000000   0.9000000), wk =   0.0480000
        k(   30) = (   0.8000000   0.0000000   0.8000000), wk =   0.0240000
        k(   31) = (   0.0000000  -1.0000000   0.0000000), wk =   0.0060000
        k(   32) = (  -0.2000000   0.4000000   0.0000000), wk =   0.0480000
        k(   33) = (  -0.3000000   0.5000000  -0.1000000), wk =   0.0960000
        k(   34) = (   0.6000000  -0.4000000   0.8000000), wk =   0.0960000
        k(   35) = (   0.5000000  -0.3000000   0.7000000), wk =   0.0480000
        k(   36) = (  -0.2000000   0.6000000   0.0000000), wk =   0.0480000
        k(   37) = (   0.7000000  -0.3000000   0.9000000), wk =   0.0960000
        k(   38) = (   0.6000000  -0.2000000   0.8000000), wk =   0.0960000
        k(   39) = (   0.5000000  -0.1000000   0.7000000), wk =   0.0960000
        k(   40) = (   0.4000000   0.0000000   0.6000000), wk =   0.0480000
        k(   41) = (   0.8000000  -0.2000000   1.0000000), wk =   0.0480000
        k(   42) = (   0.7000000  -0.1000000   0.9000000), wk =   0.0960000
        k(   43) = (   0.6000000   0.0000000   0.8000000), wk =   0.0480000
        k(   44) = (  -0.2000000  -1.0000000   0.0000000), wk =   0.0240000
        k(   45) = (   0.6000000  -0.2000000   1.0000000), wk =   0.0480000
        k(   46) = (   0.5000000  -0.1000000   0.9000000), wk =   0.0480000
        k(   47) = (  -0.4000000  -1.0000000   0.0000000), wk =   0.0240000

     Dense  grid:    43895 G-vectors     FFT dimensions: (  50,  50,  50)

     Smooth grid:    15593 G-vectors     FFT dimensions: (  36,  36,  36)

     Estimated max dynamical RAM per process >     170.82 MB

     Initial potential from superposition of free atoms

     starting charge   13.99765, renormalised to   14.00000
     Starting wfcs are    9 randomized atomic wfcs +    2 random wfcs

     total cpu time spent up to now is        2.6 secs

     Self-consistent Calculation

     iteration #  1     ecut=    70.00 Ry     beta= 0.70
     Davidson diagonalization with overlap
     ethr =  1.00E-02,  avg # of iterations =  4.0

     Threshold (ethr) on eigenvalues was too large:
     Diagonalizing with lowered threshold

     Davidson diagonalization with overlap
     ethr =  1.66E-05,  avg # of iterations =  3.6

     total cpu time spent up to now is        8.5 secs

     total energy              =    -135.43477327 Ry
     Harris-Foulkes estimate   =    -135.43617655 Ry
     estimated scf accuracy    <       0.00233755 Ry

     iteration #  2     ecut=    70.00 Ry     beta= 0.70
     Davidson diagonalization with overlap
     ethr =  1.67E-05,  avg # of iterations =  2.1

     total cpu time spent up to now is       11.4 secs

     total energy              =    -135.43524624 Ry
     Harris-Foulkes estimate   =    -135.43536312 Ry
     estimated scf accuracy    <       0.00020517 Ry

     iteration #  3     ecut=    70.00 Ry     beta= 0.70
     Davidson diagonalization with overlap
     ethr =  1.47E-06,  avg # of iterations =  2.5

     total cpu time spent up to now is       14.3 secs

     total energy              =    -135.43528889 Ry
     Harris-Foulkes estimate   =    -135.43528996 Ry
     estimated scf accuracy    <       0.00000967 Ry

     iteration #  4     ecut=    70.00 Ry     beta= 0.70
     Davidson diagonalization with overlap
     ethr =  6.91E-08,  avg # of iterations =  1.9

     total cpu time spent up to now is       16.8 secs

     total energy              =    -135.43529006 Ry
     Harris-Foulkes estimate   =    -135.43529000 Ry
     estimated scf accuracy    <       0.00000010 Ry

     iteration #  5     ecut=    70.00 Ry     beta= 0.70
     Davidson diagonalization with overlap
     ethr =  6.85E-10,  avg # of iterations =  2.2

     total cpu time spent up to now is       19.7 secs

     total energy              =    -135.43529009 Ry
     Harris-Foulkes estimate   =    -135.43529010 Ry
     estimated scf accuracy    <       0.00000001 Ry

     iteration #  6     ecut=    70.00 Ry     beta= 0.70
     Davidson diagonalization with overlap
     ethr =  9.13E-11,  avg # of iterations =  2.1

     total cpu time spent up to now is       22.6 secs

     End of self-consistent calculation

          k = 0.0000 0.0000 0.0000 (  1917 PWs)   bands (ev):

    -5.2311  -5.2311  -5.2311  -5.0719  -5.0719  -0.1809  19.6443  19.6443
    19.6443  21.9777  23.7524

          k =-0.1000 0.1000-0.1000 (  1940 PWs)   bands (ev):

    -5.2321  -5.2157  -5.2157  -5.0726  -5.0726   0.0203  17.5284  19.3938
    19.3938  21.6092  24.5521

          k =-0.2000 0.2000-0.2000 (  1943 PWs)   bands (ev):

    -5.2379  -5.1923  -5.1923  -5.0563  -5.0563   0.6256  14.2707  18.8420
    18.8420  21.2661  24.4746

          k =-0.3000 0.3000-0.3000 (  1934 PWs)   bands (ev):

    -5.2507  -5.1965  -5.1965  -5.0015  -5.0015   1.6193  11.2236  18.2743
    18.2743  21.1170  23.1784

          k =-0.4000 0.4000-0.4000 (  1937 PWs)   bands (ev):

    -5.2650  -5.2123  -5.2123  -4.9438  -4.9438   2.8807   8.6965  17.8659
    17.8659  21.1879  22.2232

          k = 0.5000-0.5000 0.5000 (  1946 PWs)   bands (ev):

    -5.2715  -5.2195  -5.2195  -4.9202  -4.9202   3.7016   7.4495  17.7179
    17.7179  21.3865  21.7303

          k = 0.0000 0.2000 0.0000 (  1941 PWs)   bands (ev):

    -5.2494  -5.1999  -5.1999  -5.0911  -5.0588   0.0873  18.1904  18.5777
    18.5777  21.1820  24.1174

          k =-0.1000 0.3000-0.1000 (  1945 PWs)   bands (ev):

    -5.2591  -5.1727  -5.1685  -5.1015  -5.0385   0.5578  15.3815  17.7871
    18.3587  21.3290  22.7875

          k =-0.2000 0.4000-0.2000 (  1944 PWs)   bands (ev):

    -5.2602  -5.1810  -5.1626  -5.0645  -4.9892   1.4240  12.3065  17.2245
    17.6689  20.9682  23.2294

          k =-0.3000 0.5000-0.3000 (  1935 PWs)   bands (ev):

    -5.2614  -5.2032  -5.1776  -5.0036  -4.9366   2.6147   9.6179  16.8815
    16.9864  20.4715  23.5233

          k = 0.6000-0.4000 0.6000 (  1942 PWs)   bands (ev):

    -5.2594  -5.2177  -5.1911  -4.9556  -4.9185   3.7232   7.8193  16.2390
    17.1240  20.4101  23.1378

          k = 0.5000-0.3000 0.5000 (  1941 PWs)   bands (ev):

    -5.2506  -5.2180  -5.1921  -4.9486  -4.9421   3.4263   8.2588  15.8933
    17.6398  20.7571  22.7803

          k = 0.4000-0.2000 0.4000 (  1942 PWs)   bands (ev):

    -5.2418  -5.2030  -5.1797  -5.0149  -4.9668   2.1913  10.4600  15.9097
    18.4559  21.4673  22.6355

          k = 0.3000-0.1000 0.3000 (  1940 PWs)   bands (ev):

    -5.2385  -5.1864  -5.1690  -5.0807  -5.0127   1.0931  13.2857  16.3128
    19.3374  22.1931  22.9658

          k = 0.2000 0.0000 0.2000 (  1945 PWs)   bands (ev):

    -5.2378  -5.1953  -5.1909  -5.0898  -5.0515   0.3564  16.1002  17.3469
    19.7792  22.0148  24.1663

          k = 0.0000 0.4000 0.0000 (  1956 PWs)   bands (ev):

    -5.2967  -5.1469  -5.1160  -5.1160  -5.0242   0.8926  15.7304  16.8081
    16.8081  20.0957  20.9435

          k =-0.1000 0.5000-0.1000 (  1946 PWs)   bands (ev):

    -5.3102  -5.1806  -5.0889  -5.0674  -4.9835   1.6239  13.3681  16.0585
    16.1256  19.7826  20.8991

          k =-0.2000 0.6000-0.2000 (  1936 PWs)   bands (ev):

    -5.3011  -5.1935  -5.0991  -5.0368  -4.9307   2.7006  10.7854  14.9356
    15.8342  19.3403  22.9071

          k = 0.7000-0.3000 0.7000 (  1940 PWs)   bands (ev):

    -5.2860  -5.1810  -5.1160  -5.0206  -4.9140   3.8719   8.7759  13.9407
    15.9798  19.3126  25.2144

          k = 0.6000-0.2000 0.6000 (  1941 PWs)   bands (ev):

    -5.2641  -5.1722  -5.1257  -5.0047  -4.9477   4.1195   8.4399  13.2958
    16.5641  19.6516  24.9224

          k = 0.5000-0.1000 0.5000 (  1940 PWs)   bands (ev):

    -5.2335  -5.1881  -5.1221  -5.0203  -4.9883   3.0840  10.1044  13.1268
    17.5236  20.3483  24.5095

          k = 0.4000 0.0000 0.4000 (  1947 PWs)   bands (ev):

    -5.2179  -5.2027  -5.1059  -5.1038  -4.9875   1.9413  12.1717  13.8528
    18.6540  21.4044  23.8191

          k = 0.0000 0.6000 0.0000 (  1960 PWs)   bands (ev):

    -5.3548  -5.2251  -5.0081  -5.0081  -4.9811   2.2166  12.9164  15.3046
    15.3046  18.7942  19.2931

          k =-0.1000 0.7000-0.1000 (  1945 PWs)   bands (ev):

    -5.3615  -5.2506  -5.0054  -4.9737  -4.9285   3.1585  11.2318  13.9817
    14.8882  18.5154  20.0857

          k = 0.8000-0.2000 0.8000 (  1934 PWs)   bands (ev):

    -5.3378  -5.2302  -5.0225  -4.9845  -4.9068   4.2575   9.6958  12.3334
    14.9329  18.5288  22.3550

          k = 0.7000-0.1000 0.7000 (  1930 PWs)   bands (ev):

    -5.3072  -5.1558  -5.0405  -5.0356  -4.9373   4.8002   9.2000  11.1440
    15.4433  18.8221  25.1683

          k = 0.6000-0.0000 0.6000 (  1933 PWs)   bands (ev):

    -5.2703  -5.1154  -5.0642  -5.0581  -4.9955   4.1349  10.0190  10.9898
    16.3618  19.4244  26.6875

          k = 0.0000 0.8000 0.0000 (  1944 PWs)   bands (ev):

    -5.4014  -5.2941  -4.9460  -4.9170  -4.9170   3.9450  10.0970  14.3291
    14.3291  17.7095  18.8190

          k = 0.9000-0.1000 0.9000 (  1940 PWs)   bands (ev):

    -5.3932  -5.2985  -4.9521  -4.9115  -4.8939   4.8433   9.0623  12.9975
    14.2353  17.9520  19.7065

          k = 0.8000 0.0000 0.8000 (  1930 PWs)   bands (ev):

    -5.3527  -5.2471  -4.9783  -4.9605  -4.9122   5.2147   9.0987  11.2229
    14.6224  18.2857  22.1572

          k = 0.0000-1.0000 0.0000 (  1964 PWs)   bands (ev):

    -5.4192  -5.3216  -4.9326  -4.8816  -4.8816   5.2166   8.4289  13.9922
    13.9922  17.3859  18.6631

          k =-0.2000 0.4000 0.0000 (  1951 PWs)   bands (ev):

    -5.2685  -5.1680  -5.1198  -5.1152  -5.0059   1.1595  14.0077  15.5998
    18.2440  21.6079  21.6806

          k =-0.3000 0.5000-0.1000 (  1943 PWs)   bands (ev):

    -5.2581  -5.1906  -5.1269  -5.0595  -4.9666   2.1349  11.5578  14.6502
    17.3246  21.0620  23.0706

          k = 0.6000-0.4000 0.8000 (  1935 PWs)   bands (ev):

    -5.2450  -5.2139  -5.1330  -5.0127  -4.9374   3.3454   9.2210  14.3902
    16.4219  20.7611  23.1837

          k = 0.5000-0.3000 0.7000 (  1936 PWs)   bands (ev):

    -5.2328  -5.2317  -5.1337  -4.9940  -4.9274   4.1008   8.0748  14.3629
    16.0459  20.6690  22.9932

          k =-0.2000 0.6000 0.0000 (  1950 PWs)   bands (ev):

    -5.3174  -5.2097  -5.0746  -5.0106  -4.9559   2.4634  12.0986  14.1736
    15.5694  20.0780  20.7818

          k = 0.7000-0.3000 0.9000 (  1936 PWs)   bands (ev):

    -5.2943  -5.2128  -5.0841  -4.9922  -4.9308   3.5745  10.2916  13.1012
    14.7337  20.1893  22.6695

          k = 0.6000-0.2000 0.8000 (  1940 PWs)   bands (ev):

    -5.2710  -5.1831  -5.0815  -5.0314  -4.9218   4.5154   8.9466  12.3633
    14.6246  20.3856  24.4142

          k = 0.5000-0.1000 0.7000 (  1939 PWs)   bands (ev):

    -5.2465  -5.1793  -5.0849  -5.0370  -4.9516   4.2456   9.3763  11.9492
    15.1898  20.8524  24.0746

          k = 0.4000 0.0000 0.6000 (  1936 PWs)   bands (ev):

    -5.2195  -5.2171  -5.1091  -5.0145  -4.9817   3.1590  10.8137  12.4331
    16.1982  21.4412  23.6077

          k = 0.8000-0.2000 1.0000 (  1945 PWs)   bands (ev):

    -5.3575  -5.2686  -5.0032  -4.9306  -4.9179   4.1203  10.0878  13.2539
    13.6975  19.2556  20.2463

          k = 0.7000-0.1000 0.9000 (  1932 PWs)   bands (ev):

    -5.3194  -5.2399  -5.0243  -4.9765  -4.8986   4.9839   9.4293  11.5762
    13.5938  19.7735  22.3167

          k = 0.6000 0.0000 0.8000 (  1937 PWs)   bands (ev):

    -5.2832  -5.1564  -5.0837  -5.0232  -4.9214   5.0011  10.0560  10.1889
    14.1762  20.2397  25.1973

          k =-0.2000-1.0000 0.0000 (  1948 PWs)   bands (ev):

    -5.3729  -5.2930  -4.9568  -4.9386  -4.8815   5.2550   8.7659  12.9362
    13.1171  18.9972  20.0668

          k = 0.6000-0.2000 1.0000 (  1928 PWs)   bands (ev):

    -5.2386  -5.2264  -5.1004  -4.9926  -4.9198   4.5579   9.9970  11.5214
    13.4740  21.9518  23.0529

          k = 0.5000-0.1000 0.9000 (  1932 PWs)   bands (ev):

    -5.2330  -5.1768  -5.1311  -5.0242  -4.8996   5.0779   9.7483  10.9903
    12.9708  22.2635  23.9744

          k =-0.4000-1.0000 0.0000 (  1930 PWs)   bands (ev):

    -5.2471  -5.2343  -5.0816  -5.0085  -4.8814   5.3208   9.7328  11.2071
    12.2311  22.0181  22.8568

     the Fermi energy is    11.9057 ev

!    total energy              =    -135.43529009 Ry
     Harris-Foulkes estimate   =    -135.43529009 Ry
     estimated scf accuracy    <          6.5E-10 Ry

     The total energy is the sum of the following terms:

     one-electron contribution =     -31.47460954 Ry
     hartree contribution      =      26.10296236 Ry
     xc contribution           =     -32.62497221 Ry
     ewald contribution        =     -97.43857717 Ry
     smearing contrib. (-TS)   =      -0.00009354 Ry

     convergence has been achieved in   6 iterations

     Writing output data file Pb.save/

     init_run     :      1.72s CPU      1.78s WALL (       1 calls)
     electrons    :     19.50s CPU     20.05s WALL (       1 calls)

     Called by init_run:
     wfcinit      :      0.76s CPU      0.78s WALL (       1 calls)
     potinit      :      0.08s CPU      0.08s WALL (       1 calls)
     hinit0       :      0.77s CPU      0.77s WALL (       1 calls)

     Called by electrons:
     c_bands      :     15.43s CPU     15.47s WALL (       7 calls)
     sum_band     :      3.13s CPU      3.44s WALL (       7 calls)
     v_of_rho     :      0.41s CPU      0.41s WALL (       7 calls)
     newd         :      0.61s CPU      0.85s WALL (       7 calls)
     mix_rho      :      0.03s CPU      0.03s WALL (       7 calls)

     Called by c_bands:
     init_us_2    :      0.35s CPU      0.35s WALL (     705 calls)
     cegterg      :     14.64s CPU     14.67s WALL (     329 calls)

     Called by sum_band:
     sum_band:bec :      0.00s CPU      0.00s WALL (     329 calls)
     addusdens    :      0.64s CPU      0.94s WALL (       7 calls)

     Called by *egterg:
     h_psi        :     11.84s CPU     11.87s WALL (    1243 calls)
     s_psi        :      0.59s CPU      0.59s WALL (    1243 calls)
     g_psi        :      0.08s CPU      0.08s WALL (     867 calls)
     cdiaghg      :      0.26s CPU      0.26s WALL (    1149 calls)

     Called by h_psi:
     h_psi:pot    :     11.80s CPU     11.83s WALL (    1243 calls)
     h_psi:calbec :      0.63s CPU      0.63s WALL (    1243 calls)
     vloc_psi     :     10.57s CPU     10.60s WALL (    1243 calls)
     add_vuspsi   :      0.60s CPU      0.60s WALL (    1243 calls)

     General routines
     calbec       :      0.84s CPU      0.85s WALL (    1572 calls)
     fft          :      0.18s CPU      0.18s WALL (      90 calls)
     ffts         :      0.02s CPU      0.02s WALL (      14 calls)
     fftw         :     11.06s CPU     11.10s WALL (   23421 calls)
     interpolate  :      0.03s CPU      0.03s WALL (       7 calls)

     Parallel routines

     PWSCF        :     22.03s CPU     22.67s WALL


   This run was terminated on:  19:58:35  30Jun2021            

=------------------------------------------------------------------------------=
   JOB DONE.
=------------------------------------------------------------------------------=
