
     Program PWSCF v.6.4.1 starts on 30Jun2021 at 20: 0:15 

     This program is part of the open-source Quantum ESPRESSO suite
     for quantum simulation of materials; please cite
         "P. Giannozzi et al., J. Phys.:Condens. Matter 21 395502 (2009);
         "P. Giannozzi et al., J. Phys.:Condens. Matter 29 465901 (2017);
          URL http://www.quantum-espresso.org", 
     in publications or presentations arising from this work. More details at
     http://www.quantum-espresso.org/quote

     Parallel version (MPI), running on     1 processors

     MPI processes distributed on     1 nodes
     Waiting for input...
     Reading input from standard input

     Current dimensions of program PWSCF are:
     Max number of different atomic species (ntypx) = 10
     Max number of k-points (npk) =  40000
     Max angular momentum in pseudopotentials (lmaxx) =  3
               file Pb.pbe-dn-rrkjus_psl.1.0.0.UPF: wavefunction(s)  6S 5D renormalized

     Subspace diagonalization in iterative solution of the eigenvalue problem:
     a serial algorithm will be used


     G-vector sticks info
     --------------------
     sticks:   dense  smooth     PW     G-vecs:    dense   smooth      PW
     Sum        1639     823    253                43895    15593    2685


     Title: 
     Lead                                                                       


     bravais-lattice index     =            2
     lattice parameter (alat)  =       9.2226  a.u.
     unit-cell volume          =     196.1075 (a.u.)^3
     number of atoms/cell      =            1
     number of atomic types    =            1
     number of electrons       =        14.00
     number of Kohn-Sham states=           11
     kinetic-energy cutoff     =      70.0000  Ry
     charge density cutoff     =     560.0000  Ry
     convergence threshold     =      1.0E-09
     mixing beta               =       0.7000
     number of iterations used =            8  plain     mixing
     Exchange-correlation      = PBE ( 1  4  3  4 0 0)

     celldm(1)=   9.222558  celldm(2)=   0.000000  celldm(3)=   0.000000
     celldm(4)=   0.000000  celldm(5)=   0.000000  celldm(6)=   0.000000

     crystal axes: (cart. coord. in units of alat)
               a(1) = (  -0.500000   0.000000   0.500000 )  
               a(2) = (   0.000000   0.500000   0.500000 )  
               a(3) = (  -0.500000   0.500000   0.000000 )  

     reciprocal axes: (cart. coord. in units 2 pi/alat)
               b(1) = ( -1.000000 -1.000000  1.000000 )  
               b(2) = (  1.000000  1.000000  1.000000 )  
               b(3) = ( -1.000000  1.000000 -1.000000 )  


     PseudoPot. # 1 for Pb read from file:
     /home/elena/qe-6.7/pseudo/Pb.pbe-dn-rrkjus_psl.1.0.0.UPF
     MD5 check sum: 1cf8f5e18580e6a90a35f98a53d336de
     Pseudo is Ultrasoft + core correction, Zval = 14.0
     Generated using "atomic" code by A. Dal Corso v.6.3
     Using radial grid of 1281 points,  6 beta functions with: 
                l(1) =   0
                l(2) =   0
                l(3) =   1
                l(4) =   1
                l(5) =   2
                l(6) =   2
     Q(r) pseudized with 0 coefficients 


     atomic species   valence    mass     pseudopotential
        Pb            14.00   207.20000     Pb( 1.00)

     48 Sym. Ops., with inversion, found



   Cartesian axes

     site n.     atom                  positions (alat units)
         1           Pb  tau(   1) = (   0.0000000   0.0000000   0.0000000  )

     number of k points=    47  Methfessel-Paxton smearing, width (Ry)=  0.0100
                       cart. coord. in units 2pi/alat
        k(    1) = (   0.0000000   0.0000000   0.0000000), wk =   0.0020000
        k(    2) = (  -0.1000000   0.1000000  -0.1000000), wk =   0.0160000
        k(    3) = (  -0.2000000   0.2000000  -0.2000000), wk =   0.0160000
        k(    4) = (  -0.3000000   0.3000000  -0.3000000), wk =   0.0160000
        k(    5) = (  -0.4000000   0.4000000  -0.4000000), wk =   0.0160000
        k(    6) = (   0.5000000  -0.5000000   0.5000000), wk =   0.0080000
        k(    7) = (   0.0000000   0.2000000   0.0000000), wk =   0.0120000
        k(    8) = (  -0.1000000   0.3000000  -0.1000000), wk =   0.0480000
        k(    9) = (  -0.2000000   0.4000000  -0.2000000), wk =   0.0480000
        k(   10) = (  -0.3000000   0.5000000  -0.3000000), wk =   0.0480000
        k(   11) = (   0.6000000  -0.4000000   0.6000000), wk =   0.0480000
        k(   12) = (   0.5000000  -0.3000000   0.5000000), wk =   0.0480000
        k(   13) = (   0.4000000  -0.2000000   0.4000000), wk =   0.0480000
        k(   14) = (   0.3000000  -0.1000000   0.3000000), wk =   0.0480000
        k(   15) = (   0.2000000   0.0000000   0.2000000), wk =   0.0240000
        k(   16) = (   0.0000000   0.4000000   0.0000000), wk =   0.0120000
        k(   17) = (  -0.1000000   0.5000000  -0.1000000), wk =   0.0480000
        k(   18) = (  -0.2000000   0.6000000  -0.2000000), wk =   0.0480000
        k(   19) = (   0.7000000  -0.3000000   0.7000000), wk =   0.0480000
        k(   20) = (   0.6000000  -0.2000000   0.6000000), wk =   0.0480000
        k(   21) = (   0.5000000  -0.1000000   0.5000000), wk =   0.0480000
        k(   22) = (   0.4000000   0.0000000   0.4000000), wk =   0.0240000
        k(   23) = (   0.0000000   0.6000000   0.0000000), wk =   0.0120000
        k(   24) = (  -0.1000000   0.7000000  -0.1000000), wk =   0.0480000
        k(   25) = (   0.8000000  -0.2000000   0.8000000), wk =   0.0480000
        k(   26) = (   0.7000000  -0.1000000   0.7000000), wk =   0.0480000
        k(   27) = (   0.6000000  -0.0000000   0.6000000), wk =   0.0240000
        k(   28) = (   0.0000000   0.8000000   0.0000000), wk =   0.0120000
        k(   29) = (   0.9000000  -0.1000000   0.9000000), wk =   0.0480000
        k(   30) = (   0.8000000   0.0000000   0.8000000), wk =   0.0240000
        k(   31) = (   0.0000000  -1.0000000   0.0000000), wk =   0.0060000
        k(   32) = (  -0.2000000   0.4000000   0.0000000), wk =   0.0480000
        k(   33) = (  -0.3000000   0.5000000  -0.1000000), wk =   0.0960000
        k(   34) = (   0.6000000  -0.4000000   0.8000000), wk =   0.0960000
        k(   35) = (   0.5000000  -0.3000000   0.7000000), wk =   0.0480000
        k(   36) = (  -0.2000000   0.6000000   0.0000000), wk =   0.0480000
        k(   37) = (   0.7000000  -0.3000000   0.9000000), wk =   0.0960000
        k(   38) = (   0.6000000  -0.2000000   0.8000000), wk =   0.0960000
        k(   39) = (   0.5000000  -0.1000000   0.7000000), wk =   0.0960000
        k(   40) = (   0.4000000   0.0000000   0.6000000), wk =   0.0480000
        k(   41) = (   0.8000000  -0.2000000   1.0000000), wk =   0.0480000
        k(   42) = (   0.7000000  -0.1000000   0.9000000), wk =   0.0960000
        k(   43) = (   0.6000000   0.0000000   0.8000000), wk =   0.0480000
        k(   44) = (  -0.2000000  -1.0000000   0.0000000), wk =   0.0240000
        k(   45) = (   0.6000000  -0.2000000   1.0000000), wk =   0.0480000
        k(   46) = (   0.5000000  -0.1000000   0.9000000), wk =   0.0480000
        k(   47) = (  -0.4000000  -1.0000000   0.0000000), wk =   0.0240000

     Dense  grid:    43895 G-vectors     FFT dimensions: (  50,  50,  50)

     Smooth grid:    15593 G-vectors     FFT dimensions: (  36,  36,  36)

     Estimated max dynamical RAM per process >     170.82 MB

     Initial potential from superposition of free atoms

     starting charge   13.99765, renormalised to   14.00000
     Starting wfcs are    9 randomized atomic wfcs +    2 random wfcs

     total cpu time spent up to now is        2.9 secs

     Self-consistent Calculation

     iteration #  1     ecut=    70.00 Ry     beta= 0.70
     Davidson diagonalization with overlap
     ethr =  1.00E-02,  avg # of iterations =  4.0

     Threshold (ethr) on eigenvalues was too large:
     Diagonalizing with lowered threshold

     Davidson diagonalization with overlap
     ethr =  1.72E-05,  avg # of iterations =  3.6

     total cpu time spent up to now is        9.6 secs

     total energy              =    -135.43494266 Ry
     Harris-Foulkes estimate   =    -135.43638759 Ry
     estimated scf accuracy    <       0.00242203 Ry

     iteration #  2     ecut=    70.00 Ry     beta= 0.70
     Davidson diagonalization with overlap
     ethr =  1.73E-05,  avg # of iterations =  2.1

     total cpu time spent up to now is       13.0 secs

     total energy              =    -135.43543000 Ry
     Harris-Foulkes estimate   =    -135.43554940 Ry
     estimated scf accuracy    <       0.00021189 Ry

     iteration #  3     ecut=    70.00 Ry     beta= 0.70
     Davidson diagonalization with overlap
     ethr =  1.51E-06,  avg # of iterations =  2.5

     total cpu time spent up to now is       16.0 secs

     total energy              =    -135.43547378 Ry
     Harris-Foulkes estimate   =    -135.43547485 Ry
     estimated scf accuracy    <       0.00001009 Ry

     iteration #  4     ecut=    70.00 Ry     beta= 0.70
     Davidson diagonalization with overlap
     ethr =  7.21E-08,  avg # of iterations =  1.9

     total cpu time spent up to now is       18.5 secs

     total energy              =    -135.43547499 Ry
     Harris-Foulkes estimate   =    -135.43547492 Ry
     estimated scf accuracy    <       0.00000010 Ry

     iteration #  5     ecut=    70.00 Ry     beta= 0.70
     Davidson diagonalization with overlap
     ethr =  7.10E-10,  avg # of iterations =  2.2

     total cpu time spent up to now is       21.4 secs

     total energy              =    -135.43547502 Ry
     Harris-Foulkes estimate   =    -135.43547503 Ry
     estimated scf accuracy    <       0.00000001 Ry

     iteration #  6     ecut=    70.00 Ry     beta= 0.70
     Davidson diagonalization with overlap
     ethr =  9.33E-11,  avg # of iterations =  2.1

     total cpu time spent up to now is       24.3 secs

     End of self-consistent calculation

          k = 0.0000 0.0000 0.0000 (  1917 PWs)   bands (ev):

    -5.2369  -5.2369  -5.2369  -5.0780  -5.0780  -0.1827  19.6425  19.6425
    19.6425  21.9772  23.7520

          k =-0.1000 0.1000-0.1000 (  1940 PWs)   bands (ev):

    -5.2379  -5.2216  -5.2216  -5.0787  -5.0787   0.0185  17.5267  19.3920
    19.3920  21.6084  24.5517

          k =-0.2000 0.2000-0.2000 (  1943 PWs)   bands (ev):

    -5.2438  -5.1982  -5.1982  -5.0624  -5.0624   0.6238  14.2691  18.8402
    18.8402  21.2653  24.4743

          k =-0.3000 0.3000-0.3000 (  1934 PWs)   bands (ev):

    -5.2565  -5.2024  -5.2024  -5.0076  -5.0076   1.6174  11.2221  18.2724
    18.2724  21.1161  23.1778

          k =-0.4000 0.4000-0.4000 (  1937 PWs)   bands (ev):

    -5.2708  -5.2182  -5.2182  -4.9498  -4.9498   2.8785   8.6952  17.8640
    17.8640  21.1873  22.2223

          k = 0.5000-0.5000 0.5000 (  1946 PWs)   bands (ev):

    -5.2772  -5.2254  -5.2254  -4.9263  -4.9263   3.6991   7.4485  17.7161
    17.7161  21.3867  21.7285

          k = 0.0000 0.2000 0.0000 (  1941 PWs)   bands (ev):

    -5.2552  -5.2058  -5.2058  -5.0971  -5.0649   0.0855  18.1886  18.5759
    18.5759  21.1811  24.1171

          k =-0.1000 0.3000-0.1000 (  1945 PWs)   bands (ev):

    -5.2649  -5.1786  -5.1744  -5.1076  -5.0446   0.5560  15.3799  17.7853
    18.3568  21.3280  22.7871

          k =-0.2000 0.4000-0.2000 (  1944 PWs)   bands (ev):

    -5.2660  -5.1869  -5.1685  -5.0705  -4.9953   1.4221  12.3049  17.2227
    17.6670  20.9676  23.2284

          k =-0.3000 0.5000-0.3000 (  1935 PWs)   bands (ev):

    -5.2672  -5.2091  -5.1835  -5.0096  -4.9426   2.6126   9.6165  16.8797
    16.9846  20.4711  23.5218

          k = 0.6000-0.4000 0.6000 (  1942 PWs)   bands (ev):

    -5.2652  -5.2236  -5.1971  -4.9616  -4.9246   3.7208   7.8182  16.2371
    17.1222  20.4098  23.1362

          k = 0.5000-0.3000 0.5000 (  1941 PWs)   bands (ev):

    -5.2563  -5.2239  -5.1981  -4.9546  -4.9481   3.4240   8.2576  15.8915
    17.6379  20.7569  22.7787

          k = 0.4000-0.2000 0.4000 (  1942 PWs)   bands (ev):

    -5.2475  -5.2089  -5.1857  -5.0209  -4.9729   2.1893  10.4586  15.9080
    18.4539  21.4672  22.6339

          k = 0.3000-0.1000 0.3000 (  1940 PWs)   bands (ev):

    -5.2443  -5.1923  -5.1749  -5.0868  -5.0187   1.0912  13.2841  16.3111
    19.3354  22.1924  22.9649

          k = 0.2000 0.0000 0.2000 (  1945 PWs)   bands (ev):

    -5.2436  -5.2011  -5.1968  -5.0958  -5.0575   0.3546  16.0985  17.3452
    19.7772  22.0139  24.1663

          k = 0.0000 0.4000 0.0000 (  1956 PWs)   bands (ev):

    -5.3025  -5.1530  -5.1219  -5.1219  -5.0303   0.8908  15.7284  16.8063
    16.8063  20.0946  20.9433

          k =-0.1000 0.5000-0.1000 (  1946 PWs)   bands (ev):

    -5.3160  -5.1866  -5.0948  -5.0733  -4.9896   1.6220  13.3664  16.0567
    16.1239  19.7821  20.8981

          k =-0.2000 0.6000-0.2000 (  1936 PWs)   bands (ev):

    -5.3069  -5.1995  -5.1051  -5.0427  -4.9367   2.6986  10.7839  14.9339
    15.8325  19.3398  22.9060

          k = 0.7000-0.3000 0.7000 (  1940 PWs)   bands (ev):

    -5.2918  -5.1869  -5.1220  -5.0266  -4.9200   3.8695   8.7747  13.9390
    15.9781  19.3120  25.2132

          k = 0.6000-0.2000 0.6000 (  1941 PWs)   bands (ev):

    -5.2700  -5.1780  -5.1317  -5.0107  -4.9537   4.1171   8.4388  13.2942
    16.5623  19.6511  24.9211

          k = 0.5000-0.1000 0.5000 (  1940 PWs)   bands (ev):

    -5.2394  -5.1939  -5.1281  -5.0262  -4.9942   3.0819  10.1030  13.1252
    17.5218  20.3478  24.5083

          k = 0.4000 0.0000 0.4000 (  1947 PWs)   bands (ev):

    -5.2237  -5.2086  -5.1120  -5.1097  -4.9935   1.9393  12.1701  13.8512
    18.6520  21.4039  23.8180

          k = 0.0000 0.6000 0.0000 (  1960 PWs)   bands (ev):

    -5.3606  -5.2310  -5.0140  -5.0140  -4.9872   2.2146  12.9145  15.3029
    15.3029  18.7941  19.2918

          k =-0.1000 0.7000-0.1000 (  1945 PWs)   bands (ev):

    -5.3673  -5.2565  -5.0114  -4.9796  -4.9345   3.1564  11.2300  13.9802
    14.8865  18.5149  20.0845

          k = 0.8000-0.2000 0.8000 (  1934 PWs)   bands (ev):

    -5.3436  -5.2361  -5.0285  -4.9904  -4.9128   4.2551   9.6943  12.3320
    14.9313  18.5282  22.3538

          k = 0.7000-0.1000 0.7000 (  1930 PWs)   bands (ev):

    -5.3131  -5.1617  -5.0466  -5.0415  -4.9433   4.7977   9.1988  11.1426
    15.4416  18.8214  25.1670

          k = 0.6000-0.0000 0.6000 (  1933 PWs)   bands (ev):

    -5.2762  -5.1212  -5.0703  -5.0640  -5.0014   4.1325  10.0176  10.9883
    16.3600  19.4237  26.6865

          k = 0.0000 0.8000 0.0000 (  1944 PWs)   bands (ev):

    -5.4071  -5.2999  -4.9521  -4.9230  -4.9230   3.9428  10.0953  14.3275
    14.3275  17.7093  18.8176

          k = 0.9000-0.1000 0.9000 (  1940 PWs)   bands (ev):

    -5.3989  -5.3044  -4.9582  -4.9175  -4.8999   4.8409   9.0609  12.9961
    14.2337  17.9514  19.7052

          k = 0.8000 0.0000 0.8000 (  1930 PWs)   bands (ev):

    -5.3584  -5.2530  -4.9844  -4.9664  -4.9182   5.2121   9.0973  11.2217
    14.6208  18.2850  22.1560

          k = 0.0000-1.0000 0.0000 (  1964 PWs)   bands (ev):

    -5.4250  -5.3275  -4.9387  -4.8875  -4.8875   5.2140   8.4276  13.9906
    13.9906  17.3857  18.6617

          k =-0.2000 0.4000 0.0000 (  1951 PWs)   bands (ev):

    -5.2743  -5.1739  -5.1256  -5.1212  -5.0120   1.1576  14.0061  15.5982
    18.2421  21.6067  21.6803

          k =-0.3000 0.5000-0.1000 (  1943 PWs)   bands (ev):

    -5.2639  -5.1965  -5.1328  -5.0655  -4.9726   2.1329  11.5563  14.6485
    17.3229  21.0614  23.0694

          k = 0.6000-0.4000 0.8000 (  1935 PWs)   bands (ev):

    -5.2508  -5.2198  -5.1389  -5.0186  -4.9434   3.3431   9.2197  14.3885
    16.4203  20.7606  23.1822

          k = 0.5000-0.3000 0.7000 (  1936 PWs)   bands (ev):

    -5.2387  -5.2375  -5.1396  -4.9999  -4.9334   4.0983   8.0738  14.3611
    16.0444  20.6685  22.9916

          k =-0.2000 0.6000 0.0000 (  1950 PWs)   bands (ev):

    -5.3231  -5.2156  -5.0805  -5.0166  -4.9620   2.4614  12.0968  14.1720
    15.5678  20.0775  20.7805

          k = 0.7000-0.3000 0.9000 (  1936 PWs)   bands (ev):

    -5.3001  -5.2188  -5.0900  -4.9982  -4.9368   3.5723  10.2900  13.0995
    14.7323  20.1886  22.6683

          k = 0.6000-0.2000 0.8000 (  1940 PWs)   bands (ev):

    -5.2769  -5.1890  -5.0874  -5.0374  -4.9278   4.5130   8.9454  12.3617
    14.6232  20.3849  24.4129

          k = 0.5000-0.1000 0.7000 (  1939 PWs)   bands (ev):

    -5.2524  -5.1851  -5.0909  -5.0430  -4.9576   4.2432   9.3750  11.9477
    15.1883  20.8516  24.0731

          k = 0.4000 0.0000 0.6000 (  1936 PWs)   bands (ev):

    -5.2253  -5.2230  -5.1151  -5.0204  -4.9877   3.1568  10.8122  12.4315
    16.1967  21.4406  23.6064

          k = 0.8000-0.2000 1.0000 (  1945 PWs)   bands (ev):

    -5.3633  -5.2745  -5.0092  -4.9366  -4.9238   4.1180  10.0862  13.2523
    13.6962  19.2550  20.2449

          k = 0.7000-0.1000 0.9000 (  1932 PWs)   bands (ev):

    -5.3252  -5.2458  -5.0302  -4.9826  -4.9046   4.9813   9.4279  11.5748
    13.5924  19.7727  22.3155

          k = 0.6000 0.0000 0.8000 (  1937 PWs)   bands (ev):

    -5.2890  -5.1623  -5.0896  -5.0292  -4.9274   4.9985  10.0545  10.1877
    14.1748  20.2389  25.1961

          k =-0.2000-1.0000 0.0000 (  1948 PWs)   bands (ev):

    -5.3786  -5.2989  -4.9629  -4.9445  -4.8875   5.2523   8.7645  12.9346
    13.1158  18.9966  20.0654

          k = 0.6000-0.2000 1.0000 (  1928 PWs)   bands (ev):

    -5.2444  -5.2323  -5.1064  -4.9987  -4.9258   4.5555   9.9955  11.5199
    13.4728  21.9512  23.0515

          k = 0.5000-0.1000 0.9000 (  1932 PWs)   bands (ev):

    -5.2389  -5.1826  -5.1370  -5.0302  -4.9056   5.0753   9.7470  10.9888
    12.9696  22.2628  23.9730

          k =-0.4000-1.0000 0.0000 (  1930 PWs)   bands (ev):

    -5.2529  -5.2402  -5.0875  -5.0146  -4.8874   5.3182   9.7314  11.2056
    12.2301  22.0174  22.8553

     the Fermi energy is    11.9480 ev

!    total energy              =    -135.43547502 Ry
     Harris-Foulkes estimate   =    -135.43547502 Ry
     estimated scf accuracy    <          6.5E-10 Ry

     The total energy is the sum of the following terms:

     one-electron contribution =     -31.47044515 Ry
     hartree contribution      =      26.09783380 Ry
     xc contribution           =     -32.62419640 Ry
     ewald contribution        =     -97.43857717 Ry
     smearing contrib. (-TS)   =      -0.00009011 Ry

     convergence has been achieved in   6 iterations

     Writing output data file Pb.save/

     init_run     :      1.99s CPU      2.07s WALL (       1 calls)
     electrons    :     20.68s CPU     21.39s WALL (       1 calls)

     Called by init_run:
     wfcinit      :      0.89s CPU      0.91s WALL (       1 calls)
     potinit      :      0.10s CPU      0.10s WALL (       1 calls)
     hinit0       :      0.85s CPU      0.85s WALL (       1 calls)

     Called by electrons:
     c_bands      :     16.43s CPU     16.56s WALL (       7 calls)
     sum_band     :      3.27s CPU      3.59s WALL (       7 calls)
     v_of_rho     :      0.43s CPU      0.44s WALL (       7 calls)
     newd         :      0.67s CPU      0.98s WALL (       7 calls)
     mix_rho      :      0.04s CPU      0.04s WALL (       7 calls)

     Called by c_bands:
     init_us_2    :      0.36s CPU      0.37s WALL (     705 calls)
     cegterg      :     15.58s CPU     15.71s WALL (     329 calls)

     Called by sum_band:
     sum_band:bec :      0.00s CPU      0.00s WALL (     329 calls)
     addusdens    :      0.72s CPU      1.03s WALL (       7 calls)

     Called by *egterg:
     h_psi        :     12.66s CPU     12.78s WALL (    1243 calls)
     s_psi        :      0.62s CPU      0.63s WALL (    1243 calls)
     g_psi        :      0.08s CPU      0.08s WALL (     867 calls)
     cdiaghg      :      0.27s CPU      0.27s WALL (    1149 calls)

     Called by h_psi:
     h_psi:pot    :     12.62s CPU     12.74s WALL (    1243 calls)
     h_psi:calbec :      0.68s CPU      0.69s WALL (    1243 calls)
     vloc_psi     :     11.30s CPU     11.40s WALL (    1243 calls)
     add_vuspsi   :      0.63s CPU      0.64s WALL (    1243 calls)

     General routines
     calbec       :      0.91s CPU      0.91s WALL (    1572 calls)
     fft          :      0.21s CPU      0.21s WALL (      90 calls)
     ffts         :      0.02s CPU      0.02s WALL (      14 calls)
     fftw         :     11.66s CPU     11.76s WALL (   23331 calls)
     interpolate  :      0.03s CPU      0.03s WALL (       7 calls)

     Parallel routines

     PWSCF        :     23.50s CPU     24.32s WALL


   This run was terminated on:  20: 0:39  30Jun2021            

=------------------------------------------------------------------------------=
   JOB DONE.
=------------------------------------------------------------------------------=
