
     Program PWSCF v.6.4.1 starts on 30Jun2021 at 19:58:59 

     This program is part of the open-source Quantum ESPRESSO suite
     for quantum simulation of materials; please cite
         "P. Giannozzi et al., J. Phys.:Condens. Matter 21 395502 (2009);
         "P. Giannozzi et al., J. Phys.:Condens. Matter 29 465901 (2017);
          URL http://www.quantum-espresso.org", 
     in publications or presentations arising from this work. More details at
     http://www.quantum-espresso.org/quote

     Parallel version (MPI), running on     1 processors

     MPI processes distributed on     1 nodes
     Waiting for input...
     Reading input from standard input

     Current dimensions of program PWSCF are:
     Max number of different atomic species (ntypx) = 10
     Max number of k-points (npk) =  40000
     Max angular momentum in pseudopotentials (lmaxx) =  3
               file Pb.pbe-dn-rrkjus_psl.1.0.0.UPF: wavefunction(s)  6S 5D renormalized

     Subspace diagonalization in iterative solution of the eigenvalue problem:
     a serial algorithm will be used


     G-vector sticks info
     --------------------
     sticks:   dense  smooth     PW     G-vecs:    dense   smooth      PW
     Sum        1639     823    253                43895    15593    2685


     Title: 
     Lead                                                                       


     bravais-lattice index     =            2
     lattice parameter (alat)  =       9.2226  a.u.
     unit-cell volume          =     196.1075 (a.u.)^3
     number of atoms/cell      =            1
     number of atomic types    =            1
     number of electrons       =        14.00
     number of Kohn-Sham states=           11
     kinetic-energy cutoff     =      70.0000  Ry
     charge density cutoff     =     560.0000  Ry
     convergence threshold     =      1.0E-09
     mixing beta               =       0.7000
     number of iterations used =            8  plain     mixing
     Exchange-correlation      = PBE ( 1  4  3  4 0 0)

     celldm(1)=   9.222558  celldm(2)=   0.000000  celldm(3)=   0.000000
     celldm(4)=   0.000000  celldm(5)=   0.000000  celldm(6)=   0.000000

     crystal axes: (cart. coord. in units of alat)
               a(1) = (  -0.500000   0.000000   0.500000 )  
               a(2) = (   0.000000   0.500000   0.500000 )  
               a(3) = (  -0.500000   0.500000   0.000000 )  

     reciprocal axes: (cart. coord. in units 2 pi/alat)
               b(1) = ( -1.000000 -1.000000  1.000000 )  
               b(2) = (  1.000000  1.000000  1.000000 )  
               b(3) = ( -1.000000  1.000000 -1.000000 )  


     PseudoPot. # 1 for Pb read from file:
     /home/elena/qe-6.7/pseudo/Pb.pbe-dn-rrkjus_psl.1.0.0.UPF
     MD5 check sum: 1cf8f5e18580e6a90a35f98a53d336de
     Pseudo is Ultrasoft + core correction, Zval = 14.0
     Generated using "atomic" code by A. Dal Corso v.6.3
     Using radial grid of 1281 points,  6 beta functions with: 
                l(1) =   0
                l(2) =   0
                l(3) =   1
                l(4) =   1
                l(5) =   2
                l(6) =   2
     Q(r) pseudized with 0 coefficients 


     atomic species   valence    mass     pseudopotential
        Pb            14.00   207.20000     Pb( 1.00)

     48 Sym. Ops., with inversion, found



   Cartesian axes

     site n.     atom                  positions (alat units)
         1           Pb  tau(   1) = (   0.0000000   0.0000000   0.0000000  )

     number of k points=    47  Methfessel-Paxton smearing, width (Ry)=  0.0400
                       cart. coord. in units 2pi/alat
        k(    1) = (   0.0000000   0.0000000   0.0000000), wk =   0.0020000
        k(    2) = (  -0.1000000   0.1000000  -0.1000000), wk =   0.0160000
        k(    3) = (  -0.2000000   0.2000000  -0.2000000), wk =   0.0160000
        k(    4) = (  -0.3000000   0.3000000  -0.3000000), wk =   0.0160000
        k(    5) = (  -0.4000000   0.4000000  -0.4000000), wk =   0.0160000
        k(    6) = (   0.5000000  -0.5000000   0.5000000), wk =   0.0080000
        k(    7) = (   0.0000000   0.2000000   0.0000000), wk =   0.0120000
        k(    8) = (  -0.1000000   0.3000000  -0.1000000), wk =   0.0480000
        k(    9) = (  -0.2000000   0.4000000  -0.2000000), wk =   0.0480000
        k(   10) = (  -0.3000000   0.5000000  -0.3000000), wk =   0.0480000
        k(   11) = (   0.6000000  -0.4000000   0.6000000), wk =   0.0480000
        k(   12) = (   0.5000000  -0.3000000   0.5000000), wk =   0.0480000
        k(   13) = (   0.4000000  -0.2000000   0.4000000), wk =   0.0480000
        k(   14) = (   0.3000000  -0.1000000   0.3000000), wk =   0.0480000
        k(   15) = (   0.2000000   0.0000000   0.2000000), wk =   0.0240000
        k(   16) = (   0.0000000   0.4000000   0.0000000), wk =   0.0120000
        k(   17) = (  -0.1000000   0.5000000  -0.1000000), wk =   0.0480000
        k(   18) = (  -0.2000000   0.6000000  -0.2000000), wk =   0.0480000
        k(   19) = (   0.7000000  -0.3000000   0.7000000), wk =   0.0480000
        k(   20) = (   0.6000000  -0.2000000   0.6000000), wk =   0.0480000
        k(   21) = (   0.5000000  -0.1000000   0.5000000), wk =   0.0480000
        k(   22) = (   0.4000000   0.0000000   0.4000000), wk =   0.0240000
        k(   23) = (   0.0000000   0.6000000   0.0000000), wk =   0.0120000
        k(   24) = (  -0.1000000   0.7000000  -0.1000000), wk =   0.0480000
        k(   25) = (   0.8000000  -0.2000000   0.8000000), wk =   0.0480000
        k(   26) = (   0.7000000  -0.1000000   0.7000000), wk =   0.0480000
        k(   27) = (   0.6000000  -0.0000000   0.6000000), wk =   0.0240000
        k(   28) = (   0.0000000   0.8000000   0.0000000), wk =   0.0120000
        k(   29) = (   0.9000000  -0.1000000   0.9000000), wk =   0.0480000
        k(   30) = (   0.8000000   0.0000000   0.8000000), wk =   0.0240000
        k(   31) = (   0.0000000  -1.0000000   0.0000000), wk =   0.0060000
        k(   32) = (  -0.2000000   0.4000000   0.0000000), wk =   0.0480000
        k(   33) = (  -0.3000000   0.5000000  -0.1000000), wk =   0.0960000
        k(   34) = (   0.6000000  -0.4000000   0.8000000), wk =   0.0960000
        k(   35) = (   0.5000000  -0.3000000   0.7000000), wk =   0.0480000
        k(   36) = (  -0.2000000   0.6000000   0.0000000), wk =   0.0480000
        k(   37) = (   0.7000000  -0.3000000   0.9000000), wk =   0.0960000
        k(   38) = (   0.6000000  -0.2000000   0.8000000), wk =   0.0960000
        k(   39) = (   0.5000000  -0.1000000   0.7000000), wk =   0.0960000
        k(   40) = (   0.4000000   0.0000000   0.6000000), wk =   0.0480000
        k(   41) = (   0.8000000  -0.2000000   1.0000000), wk =   0.0480000
        k(   42) = (   0.7000000  -0.1000000   0.9000000), wk =   0.0960000
        k(   43) = (   0.6000000   0.0000000   0.8000000), wk =   0.0480000
        k(   44) = (  -0.2000000  -1.0000000   0.0000000), wk =   0.0240000
        k(   45) = (   0.6000000  -0.2000000   1.0000000), wk =   0.0480000
        k(   46) = (   0.5000000  -0.1000000   0.9000000), wk =   0.0480000
        k(   47) = (  -0.4000000  -1.0000000   0.0000000), wk =   0.0240000

     Dense  grid:    43895 G-vectors     FFT dimensions: (  50,  50,  50)

     Smooth grid:    15593 G-vectors     FFT dimensions: (  36,  36,  36)

     Estimated max dynamical RAM per process >     170.82 MB

     Initial potential from superposition of free atoms

     starting charge   13.99765, renormalised to   14.00000
     Starting wfcs are    9 randomized atomic wfcs +    2 random wfcs

     total cpu time spent up to now is        2.5 secs

     Self-consistent Calculation

     iteration #  1     ecut=    70.00 Ry     beta= 0.70
     Davidson diagonalization with overlap
     ethr =  1.00E-02,  avg # of iterations =  4.0

     Threshold (ethr) on eigenvalues was too large:
     Diagonalizing with lowered threshold

     Davidson diagonalization with overlap
     ethr =  1.68E-05,  avg # of iterations =  3.6

     total cpu time spent up to now is        8.6 secs

     total energy              =    -135.43472996 Ry
     Harris-Foulkes estimate   =    -135.43614940 Ry
     estimated scf accuracy    <       0.00236264 Ry

     iteration #  2     ecut=    70.00 Ry     beta= 0.70
     Davidson diagonalization with overlap
     ethr =  1.69E-05,  avg # of iterations =  2.1

     total cpu time spent up to now is       11.5 secs

     total energy              =    -135.43520815 Ry
     Harris-Foulkes estimate   =    -135.43532638 Ry
     estimated scf accuracy    <       0.00020723 Ry

     iteration #  3     ecut=    70.00 Ry     beta= 0.70
     Davidson diagonalization with overlap
     ethr =  1.48E-06,  avg # of iterations =  2.5

     total cpu time spent up to now is       14.4 secs

     total energy              =    -135.43525141 Ry
     Harris-Foulkes estimate   =    -135.43525247 Ry
     estimated scf accuracy    <       0.00000971 Ry

     iteration #  4     ecut=    70.00 Ry     beta= 0.70
     Davidson diagonalization with overlap
     ethr =  6.94E-08,  avg # of iterations =  1.9

     total cpu time spent up to now is       16.8 secs

     total energy              =    -135.43525260 Ry
     Harris-Foulkes estimate   =    -135.43525253 Ry
     estimated scf accuracy    <       0.00000010 Ry

     iteration #  5     ecut=    70.00 Ry     beta= 0.70
     Davidson diagonalization with overlap
     ethr =  7.09E-10,  avg # of iterations =  2.1

     total cpu time spent up to now is       19.8 secs

     total energy              =    -135.43525262 Ry
     Harris-Foulkes estimate   =    -135.43525263 Ry
     estimated scf accuracy    <       0.00000001 Ry

     iteration #  6     ecut=    70.00 Ry     beta= 0.70
     Davidson diagonalization with overlap
     ethr =  9.43E-11,  avg # of iterations =  2.1

     total cpu time spent up to now is       22.7 secs

     End of self-consistent calculation

          k = 0.0000 0.0000 0.0000 (  1917 PWs)   bands (ev):

    -5.2331  -5.2331  -5.2331  -5.0739  -5.0739  -0.1816  19.6437  19.6437
    19.6437  21.9777  23.7521

          k =-0.1000 0.1000-0.1000 (  1940 PWs)   bands (ev):

    -5.2341  -5.2178  -5.2178  -5.0746  -5.0746   0.0197  17.5278  19.3932
    19.3932  21.6090  24.5519

          k =-0.2000 0.2000-0.2000 (  1943 PWs)   bands (ev):

    -5.2400  -5.1943  -5.1943  -5.0583  -5.0583   0.6250  14.2701  18.8414
    18.8414  21.2659  24.4744

          k =-0.3000 0.3000-0.3000 (  1934 PWs)   bands (ev):

    -5.2528  -5.1985  -5.1985  -5.0036  -5.0036   1.6186  11.2231  18.2736
    18.2736  21.1167  23.1782

          k =-0.4000 0.4000-0.4000 (  1937 PWs)   bands (ev):

    -5.2671  -5.2143  -5.2143  -4.9458  -4.9458   2.8800   8.6961  17.8652
    17.8652  21.1877  22.2230

          k = 0.5000-0.5000 0.5000 (  1946 PWs)   bands (ev):

    -5.2735  -5.2215  -5.2215  -4.9223  -4.9223   3.7007   7.4492  17.7173
    17.7173  21.3865  21.7298

          k = 0.0000 0.2000 0.0000 (  1941 PWs)   bands (ev):

    -5.2514  -5.2020  -5.2020  -5.0931  -5.0608   0.0866  18.1897  18.5770
    18.5770  21.1818  24.1172

          k =-0.1000 0.3000-0.1000 (  1945 PWs)   bands (ev):

    -5.2611  -5.1748  -5.1706  -5.1035  -5.0406   0.5572  15.3809  17.7865
    18.3580  21.3288  22.7873

          k =-0.2000 0.4000-0.2000 (  1944 PWs)   bands (ev):

    -5.2622  -5.1831  -5.1646  -5.0665  -4.9913   1.4234  12.3059  17.2238
    17.6683  20.9680  23.2291

          k =-0.3000 0.5000-0.3000 (  1935 PWs)   bands (ev):

    -5.2634  -5.2052  -5.1796  -5.0057  -4.9386   2.6140   9.6174  16.8809
    16.9858  20.4714  23.5229

          k = 0.6000-0.4000 0.6000 (  1942 PWs)   bands (ev):

    -5.2615  -5.2197  -5.1932  -4.9576  -4.9206   3.7224   7.8189  16.2383
    17.1233  20.4100  23.1373

          k = 0.5000-0.3000 0.5000 (  1941 PWs)   bands (ev):

    -5.2526  -5.2200  -5.1941  -4.9507  -4.9442   3.4255   8.2584  15.8927
    17.6391  20.7570  22.7799

          k = 0.4000-0.2000 0.4000 (  1942 PWs)   bands (ev):

    -5.2438  -5.2050  -5.1818  -5.0170  -4.9689   2.1906  10.4595  15.9091
    18.4551  21.4673  22.6350

          k = 0.3000-0.1000 0.3000 (  1940 PWs)   bands (ev):

    -5.2405  -5.1884  -5.1710  -5.0828  -5.0148   1.0924  13.2851  16.3122
    19.3366  22.1929  22.9655

          k = 0.2000 0.0000 0.2000 (  1945 PWs)   bands (ev):

    -5.2398  -5.1973  -5.1930  -5.0918  -5.0535   0.3558  16.0996  17.3463
    19.7785  22.0146  24.1662

          k = 0.0000 0.4000 0.0000 (  1956 PWs)   bands (ev):

    -5.2987  -5.1489  -5.1181  -5.1181  -5.0262   0.8920  15.7297  16.8075
    16.8075  20.0954  20.9434

          k =-0.1000 0.5000-0.1000 (  1946 PWs)   bands (ev):

    -5.3122  -5.1826  -5.0910  -5.0694  -4.9856   1.6232  13.3675  16.0579
    16.1250  19.7824  20.8988

          k =-0.2000 0.6000-0.2000 (  1936 PWs)   bands (ev):

    -5.3031  -5.1955  -5.1011  -5.0388  -4.9328   2.6999  10.7849  14.9350
    15.8336  19.3401  22.9067

          k = 0.7000-0.3000 0.7000 (  1940 PWs)   bands (ev):

    -5.2880  -5.1830  -5.1181  -5.0227  -4.9161   3.8711   8.7755  13.9401
    15.9792  19.3124  25.2140

          k = 0.6000-0.2000 0.6000 (  1941 PWs)   bands (ev):

    -5.2661  -5.1742  -5.1277  -5.0067  -4.9498   4.1187   8.4395  13.2953
    16.5635  19.6514  24.9220

          k = 0.5000-0.1000 0.5000 (  1940 PWs)   bands (ev):

    -5.2356  -5.1901  -5.1241  -5.0223  -4.9903   3.0833  10.1039  13.1262
    17.5229  20.3481  24.5092

          k = 0.4000 0.0000 0.4000 (  1947 PWs)   bands (ev):

    -5.2199  -5.2047  -5.1079  -5.1058  -4.9895   1.9406  12.1711  13.8523
    18.6532  21.4042  23.8188

          k = 0.0000 0.6000 0.0000 (  1960 PWs)   bands (ev):

    -5.3568  -5.2270  -5.0101  -5.0101  -4.9832   2.2159  12.9157  15.3040
    15.3040  18.7941  19.2928

          k =-0.1000 0.7000-0.1000 (  1945 PWs)   bands (ev):

    -5.3635  -5.2525  -5.0074  -4.9758  -4.9305   3.1578  11.2312  13.9811
    14.8876  18.5152  20.0854

          k = 0.8000-0.2000 0.8000 (  1934 PWs)   bands (ev):

    -5.3398  -5.2322  -5.0245  -4.9865  -4.9089   4.2566   9.6952  12.3329
    14.9324  18.5286  22.3546

          k = 0.7000-0.1000 0.7000 (  1930 PWs)   bands (ev):

    -5.3092  -5.1578  -5.0426  -5.0376  -4.9394   4.7993   9.1996  11.1435
    15.4427  18.8218  25.1679

          k = 0.6000-0.0000 0.6000 (  1933 PWs)   bands (ev):

    -5.2723  -5.1174  -5.0662  -5.0601  -4.9976   4.1340  10.0185  10.9893
    16.3612  19.4241  26.6873

          k = 0.0000 0.8000 0.0000 (  1944 PWs)   bands (ev):

    -5.4034  -5.2960  -4.9480  -4.9191  -4.9191   3.9443  10.0964  14.3286
    14.3286  17.7094  18.8186

          k = 0.9000-0.1000 0.9000 (  1940 PWs)   bands (ev):

    -5.3952  -5.3005  -4.9542  -4.9136  -4.8960   4.8425   9.0618  12.9970
    14.2348  17.9517  19.7061

          k = 0.8000 0.0000 0.8000 (  1930 PWs)   bands (ev):

    -5.3547  -5.2491  -4.9803  -4.9626  -4.9143   5.2138   9.0982  11.2225
    14.6218  18.2855  22.1568

          k = 0.0000-1.0000 0.0000 (  1964 PWs)   bands (ev):

    -5.4212  -5.3236  -4.9346  -4.8836  -4.8836   5.2157   8.4285  13.9917
    13.9917  17.3858  18.6627

          k =-0.2000 0.4000 0.0000 (  1951 PWs)   bands (ev):

    -5.2705  -5.1700  -5.1218  -5.1172  -5.0079   1.1589  14.0071  15.5992
    18.2433  21.6076  21.6804

          k =-0.3000 0.5000-0.1000 (  1943 PWs)   bands (ev):

    -5.2601  -5.1926  -5.1289  -5.0616  -4.9686   2.1342  11.5573  14.6496
    17.3240  21.0618  23.0702

          k = 0.6000-0.4000 0.8000 (  1935 PWs)   bands (ev):

    -5.2470  -5.2159  -5.1350  -5.0147  -4.9394   3.3446   9.2206  14.3896
    16.4213  20.7609  23.1832

          k = 0.5000-0.3000 0.7000 (  1936 PWs)   bands (ev):

    -5.2348  -5.2337  -5.1357  -4.9960  -4.9294   4.0999   8.0745  14.3623
    16.0454  20.6688  22.9927

          k =-0.2000 0.6000 0.0000 (  1950 PWs)   bands (ev):

    -5.3194  -5.2116  -5.0766  -5.0127  -4.9580   2.4627  12.0980  14.1731
    15.5688  20.0777  20.7814

          k = 0.7000-0.3000 0.9000 (  1936 PWs)   bands (ev):

    -5.2963  -5.2148  -5.0861  -4.9943  -4.9328   3.5738  10.2910  13.1006
    14.7332  20.1890  22.6692

          k = 0.6000-0.2000 0.8000 (  1940 PWs)   bands (ev):

    -5.2730  -5.1851  -5.0835  -5.0334  -4.9238   4.5146   8.9462  12.3628
    14.6241  20.3853  24.4137

          k = 0.5000-0.1000 0.7000 (  1939 PWs)   bands (ev):

    -5.2485  -5.1813  -5.0869  -5.0391  -4.9537   4.2447   9.3758  11.9487
    15.1893  20.8521  24.0741

          k = 0.4000 0.0000 0.6000 (  1936 PWs)   bands (ev):

    -5.2215  -5.2191  -5.1111  -5.0165  -4.9837   3.1582  10.8131  12.4326
    16.1977  21.4410  23.6073

          k = 0.8000-0.2000 1.0000 (  1945 PWs)   bands (ev):

    -5.3595  -5.2706  -5.0053  -4.9326  -4.9200   4.1195  10.0873  13.2534
    13.6970  19.2553  20.2459

          k = 0.7000-0.1000 0.9000 (  1932 PWs)   bands (ev):

    -5.3214  -5.2418  -5.0263  -4.9786  -4.9007   4.9830   9.4288  11.5757
    13.5933  19.7732  22.3163

          k = 0.6000 0.0000 0.8000 (  1937 PWs)   bands (ev):

    -5.2852  -5.1584  -5.0858  -5.0252  -4.9235   5.0002  10.0555  10.1885
    14.1757  20.2394  25.1969

          k =-0.2000-1.0000 0.0000 (  1948 PWs)   bands (ev):

    -5.3749  -5.2949  -4.9588  -4.9407  -4.8836   5.2540   8.7654  12.9357
    13.1166  18.9969  20.0664

          k = 0.6000-0.2000 1.0000 (  1928 PWs)   bands (ev):

    -5.2406  -5.2284  -5.1025  -4.9946  -4.9219   4.5571   9.9965  11.5209
    13.4735  21.9515  23.0525

          k = 0.5000-0.1000 0.9000 (  1932 PWs)   bands (ev):

    -5.2350  -5.1788  -5.1331  -5.0262  -4.9017   5.0770   9.7479  10.9898
    12.9704  22.2631  23.9740

          k =-0.4000-1.0000 0.0000 (  1930 PWs)   bands (ev):

    -5.2491  -5.2363  -5.0837  -5.0105  -4.8835   5.3199   9.7324  11.2066
    12.2307  22.0178  22.8563

     the Fermi energy is    11.9002 ev

!    total energy              =    -135.43525263 Ry
     Harris-Foulkes estimate   =    -135.43525263 Ry
     estimated scf accuracy    <          6.3E-10 Ry

     The total energy is the sum of the following terms:

     one-electron contribution =     -31.47325455 Ry
     hartree contribution      =      26.10121431 Ry
     xc contribution           =     -32.62469636 Ry
     ewald contribution        =     -97.43857717 Ry
     smearing contrib. (-TS)   =       0.00006114 Ry

     convergence has been achieved in   6 iterations

     Writing output data file Pb.save/

     init_run     :      1.70s CPU      1.78s WALL (       1 calls)
     electrons    :     19.53s CPU     20.11s WALL (       1 calls)

     Called by init_run:
     wfcinit      :      0.75s CPU      0.77s WALL (       1 calls)
     potinit      :      0.08s CPU      0.08s WALL (       1 calls)
     hinit0       :      0.77s CPU      0.78s WALL (       1 calls)

     Called by electrons:
     c_bands      :     15.48s CPU     15.52s WALL (       7 calls)
     sum_band     :      3.16s CPU      3.44s WALL (       7 calls)
     v_of_rho     :      0.39s CPU      0.41s WALL (       7 calls)
     newd         :      0.55s CPU      0.85s WALL (       7 calls)
     mix_rho      :      0.03s CPU      0.03s WALL (       7 calls)

     Called by c_bands:
     init_us_2    :      0.35s CPU      0.35s WALL (     705 calls)
     cegterg      :     14.68s CPU     14.71s WALL (     329 calls)

     Called by sum_band:
     sum_band:bec :      0.00s CPU      0.00s WALL (     329 calls)
     addusdens    :      0.66s CPU      0.95s WALL (       7 calls)

     Called by *egterg:
     h_psi        :     11.86s CPU     11.89s WALL (    1241 calls)
     s_psi        :      0.59s CPU      0.59s WALL (    1241 calls)
     g_psi        :      0.08s CPU      0.08s WALL (     865 calls)
     cdiaghg      :      0.25s CPU      0.25s WALL (    1147 calls)

     Called by h_psi:
     h_psi:pot    :     11.82s CPU     11.86s WALL (    1241 calls)
     h_psi:calbec :      0.63s CPU      0.64s WALL (    1241 calls)
     vloc_psi     :     10.59s CPU     10.61s WALL (    1241 calls)
     add_vuspsi   :      0.60s CPU      0.60s WALL (    1241 calls)

     General routines
     calbec       :      0.85s CPU      0.85s WALL (    1570 calls)
     fft          :      0.19s CPU      0.19s WALL (      90 calls)
     ffts         :      0.02s CPU      0.02s WALL (      14 calls)
     fftw         :     11.08s CPU     11.10s WALL (   23399 calls)
     interpolate  :      0.03s CPU      0.03s WALL (       7 calls)

     Parallel routines

     PWSCF        :     22.02s CPU     22.69s WALL


   This run was terminated on:  19:59:22  30Jun2021            

=------------------------------------------------------------------------------=
   JOB DONE.
=------------------------------------------------------------------------------=
