
     Program PWSCF v.6.4.1 starts on 30Jun2021 at 19:58:36 

     This program is part of the open-source Quantum ESPRESSO suite
     for quantum simulation of materials; please cite
         "P. Giannozzi et al., J. Phys.:Condens. Matter 21 395502 (2009);
         "P. Giannozzi et al., J. Phys.:Condens. Matter 29 465901 (2017);
          URL http://www.quantum-espresso.org", 
     in publications or presentations arising from this work. More details at
     http://www.quantum-espresso.org/quote

     Parallel version (MPI), running on     1 processors

     MPI processes distributed on     1 nodes
     Waiting for input...
     Reading input from standard input

     Current dimensions of program PWSCF are:
     Max number of different atomic species (ntypx) = 10
     Max number of k-points (npk) =  40000
     Max angular momentum in pseudopotentials (lmaxx) =  3
               file Pb.pbe-dn-rrkjus_psl.1.0.0.UPF: wavefunction(s)  6S 5D renormalized

     Subspace diagonalization in iterative solution of the eigenvalue problem:
     a serial algorithm will be used


     G-vector sticks info
     --------------------
     sticks:   dense  smooth     PW     G-vecs:    dense   smooth      PW
     Sum        1639     823    253                43895    15593    2685


     Title: 
     Lead                                                                       


     bravais-lattice index     =            2
     lattice parameter (alat)  =       9.2226  a.u.
     unit-cell volume          =     196.1075 (a.u.)^3
     number of atoms/cell      =            1
     number of atomic types    =            1
     number of electrons       =        14.00
     number of Kohn-Sham states=           11
     kinetic-energy cutoff     =      70.0000  Ry
     charge density cutoff     =     560.0000  Ry
     convergence threshold     =      1.0E-09
     mixing beta               =       0.7000
     number of iterations used =            8  plain     mixing
     Exchange-correlation      = PBE ( 1  4  3  4 0 0)

     celldm(1)=   9.222558  celldm(2)=   0.000000  celldm(3)=   0.000000
     celldm(4)=   0.000000  celldm(5)=   0.000000  celldm(6)=   0.000000

     crystal axes: (cart. coord. in units of alat)
               a(1) = (  -0.500000   0.000000   0.500000 )  
               a(2) = (   0.000000   0.500000   0.500000 )  
               a(3) = (  -0.500000   0.500000   0.000000 )  

     reciprocal axes: (cart. coord. in units 2 pi/alat)
               b(1) = ( -1.000000 -1.000000  1.000000 )  
               b(2) = (  1.000000  1.000000  1.000000 )  
               b(3) = ( -1.000000  1.000000 -1.000000 )  


     PseudoPot. # 1 for Pb read from file:
     /home/elena/qe-6.7/pseudo/Pb.pbe-dn-rrkjus_psl.1.0.0.UPF
     MD5 check sum: 1cf8f5e18580e6a90a35f98a53d336de
     Pseudo is Ultrasoft + core correction, Zval = 14.0
     Generated using "atomic" code by A. Dal Corso v.6.3
     Using radial grid of 1281 points,  6 beta functions with: 
                l(1) =   0
                l(2) =   0
                l(3) =   1
                l(4) =   1
                l(5) =   2
                l(6) =   2
     Q(r) pseudized with 0 coefficients 


     atomic species   valence    mass     pseudopotential
        Pb            14.00   207.20000     Pb( 1.00)

     48 Sym. Ops., with inversion, found



   Cartesian axes

     site n.     atom                  positions (alat units)
         1           Pb  tau(   1) = (   0.0000000   0.0000000   0.0000000  )

     number of k points=    47  Methfessel-Paxton smearing, width (Ry)=  0.0500
                       cart. coord. in units 2pi/alat
        k(    1) = (   0.0000000   0.0000000   0.0000000), wk =   0.0020000
        k(    2) = (  -0.1000000   0.1000000  -0.1000000), wk =   0.0160000
        k(    3) = (  -0.2000000   0.2000000  -0.2000000), wk =   0.0160000
        k(    4) = (  -0.3000000   0.3000000  -0.3000000), wk =   0.0160000
        k(    5) = (  -0.4000000   0.4000000  -0.4000000), wk =   0.0160000
        k(    6) = (   0.5000000  -0.5000000   0.5000000), wk =   0.0080000
        k(    7) = (   0.0000000   0.2000000   0.0000000), wk =   0.0120000
        k(    8) = (  -0.1000000   0.3000000  -0.1000000), wk =   0.0480000
        k(    9) = (  -0.2000000   0.4000000  -0.2000000), wk =   0.0480000
        k(   10) = (  -0.3000000   0.5000000  -0.3000000), wk =   0.0480000
        k(   11) = (   0.6000000  -0.4000000   0.6000000), wk =   0.0480000
        k(   12) = (   0.5000000  -0.3000000   0.5000000), wk =   0.0480000
        k(   13) = (   0.4000000  -0.2000000   0.4000000), wk =   0.0480000
        k(   14) = (   0.3000000  -0.1000000   0.3000000), wk =   0.0480000
        k(   15) = (   0.2000000   0.0000000   0.2000000), wk =   0.0240000
        k(   16) = (   0.0000000   0.4000000   0.0000000), wk =   0.0120000
        k(   17) = (  -0.1000000   0.5000000  -0.1000000), wk =   0.0480000
        k(   18) = (  -0.2000000   0.6000000  -0.2000000), wk =   0.0480000
        k(   19) = (   0.7000000  -0.3000000   0.7000000), wk =   0.0480000
        k(   20) = (   0.6000000  -0.2000000   0.6000000), wk =   0.0480000
        k(   21) = (   0.5000000  -0.1000000   0.5000000), wk =   0.0480000
        k(   22) = (   0.4000000   0.0000000   0.4000000), wk =   0.0240000
        k(   23) = (   0.0000000   0.6000000   0.0000000), wk =   0.0120000
        k(   24) = (  -0.1000000   0.7000000  -0.1000000), wk =   0.0480000
        k(   25) = (   0.8000000  -0.2000000   0.8000000), wk =   0.0480000
        k(   26) = (   0.7000000  -0.1000000   0.7000000), wk =   0.0480000
        k(   27) = (   0.6000000  -0.0000000   0.6000000), wk =   0.0240000
        k(   28) = (   0.0000000   0.8000000   0.0000000), wk =   0.0120000
        k(   29) = (   0.9000000  -0.1000000   0.9000000), wk =   0.0480000
        k(   30) = (   0.8000000   0.0000000   0.8000000), wk =   0.0240000
        k(   31) = (   0.0000000  -1.0000000   0.0000000), wk =   0.0060000
        k(   32) = (  -0.2000000   0.4000000   0.0000000), wk =   0.0480000
        k(   33) = (  -0.3000000   0.5000000  -0.1000000), wk =   0.0960000
        k(   34) = (   0.6000000  -0.4000000   0.8000000), wk =   0.0960000
        k(   35) = (   0.5000000  -0.3000000   0.7000000), wk =   0.0480000
        k(   36) = (  -0.2000000   0.6000000   0.0000000), wk =   0.0480000
        k(   37) = (   0.7000000  -0.3000000   0.9000000), wk =   0.0960000
        k(   38) = (   0.6000000  -0.2000000   0.8000000), wk =   0.0960000
        k(   39) = (   0.5000000  -0.1000000   0.7000000), wk =   0.0960000
        k(   40) = (   0.4000000   0.0000000   0.6000000), wk =   0.0480000
        k(   41) = (   0.8000000  -0.2000000   1.0000000), wk =   0.0480000
        k(   42) = (   0.7000000  -0.1000000   0.9000000), wk =   0.0960000
        k(   43) = (   0.6000000   0.0000000   0.8000000), wk =   0.0480000
        k(   44) = (  -0.2000000  -1.0000000   0.0000000), wk =   0.0240000
        k(   45) = (   0.6000000  -0.2000000   1.0000000), wk =   0.0480000
        k(   46) = (   0.5000000  -0.1000000   0.9000000), wk =   0.0480000
        k(   47) = (  -0.4000000  -1.0000000   0.0000000), wk =   0.0240000

     Dense  grid:    43895 G-vectors     FFT dimensions: (  50,  50,  50)

     Smooth grid:    15593 G-vectors     FFT dimensions: (  36,  36,  36)

     Estimated max dynamical RAM per process >     170.82 MB

     Initial potential from superposition of free atoms

     starting charge   13.99765, renormalised to   14.00000
     Starting wfcs are    9 randomized atomic wfcs +    2 random wfcs

     total cpu time spent up to now is        2.5 secs

     Self-consistent Calculation

     iteration #  1     ecut=    70.00 Ry     beta= 0.70
     Davidson diagonalization with overlap
     ethr =  1.00E-02,  avg # of iterations =  4.0

     Threshold (ethr) on eigenvalues was too large:
     Diagonalizing with lowered threshold

     Davidson diagonalization with overlap
     ethr =  1.67E-05,  avg # of iterations =  3.6

     total cpu time spent up to now is        8.5 secs

     total energy              =    -135.43474531 Ry
     Harris-Foulkes estimate   =    -135.43615563 Ry
     estimated scf accuracy    <       0.00234817 Ry

     iteration #  2     ecut=    70.00 Ry     beta= 0.70
     Davidson diagonalization with overlap
     ethr =  1.68E-05,  avg # of iterations =  2.1

     total cpu time spent up to now is       11.4 secs

     total energy              =    -135.43522067 Ry
     Harris-Foulkes estimate   =    -135.43533821 Ry
     estimated scf accuracy    <       0.00020612 Ry

     iteration #  3     ecut=    70.00 Ry     beta= 0.70
     Davidson diagonalization with overlap
     ethr =  1.47E-06,  avg # of iterations =  2.5

     total cpu time spent up to now is       14.2 secs

     total energy              =    -135.43526357 Ry
     Harris-Foulkes estimate   =    -135.43526463 Ry
     estimated scf accuracy    <       0.00000969 Ry

     iteration #  4     ecut=    70.00 Ry     beta= 0.70
     Davidson diagonalization with overlap
     ethr =  6.92E-08,  avg # of iterations =  1.9

     total cpu time spent up to now is       16.7 secs

     total energy              =    -135.43526474 Ry
     Harris-Foulkes estimate   =    -135.43526468 Ry
     estimated scf accuracy    <       0.00000010 Ry

     iteration #  5     ecut=    70.00 Ry     beta= 0.70
     Davidson diagonalization with overlap
     ethr =  6.97E-10,  avg # of iterations =  2.2

     total cpu time spent up to now is       19.6 secs

     total energy              =    -135.43526477 Ry
     Harris-Foulkes estimate   =    -135.43526478 Ry
     estimated scf accuracy    <       0.00000001 Ry

     iteration #  6     ecut=    70.00 Ry     beta= 0.70
     Davidson diagonalization with overlap
     ethr =  9.35E-11,  avg # of iterations =  2.1

     total cpu time spent up to now is       22.5 secs

     End of self-consistent calculation

          k = 0.0000 0.0000 0.0000 (  1917 PWs)   bands (ev):

    -5.2320  -5.2320  -5.2320  -5.0728  -5.0728  -0.1812  19.6440  19.6440
    19.6440  21.9777  23.7523

          k =-0.1000 0.1000-0.1000 (  1940 PWs)   bands (ev):

    -5.2330  -5.2166  -5.2166  -5.0735  -5.0735   0.0200  17.5281  19.3936
    19.3936  21.6091  24.5520

          k =-0.2000 0.2000-0.2000 (  1943 PWs)   bands (ev):

    -5.2388  -5.1932  -5.1932  -5.0572  -5.0572   0.6254  14.2704  18.8417
    18.8417  21.2661  24.4745

          k =-0.3000 0.3000-0.3000 (  1934 PWs)   bands (ev):

    -5.2516  -5.1973  -5.1973  -5.0024  -5.0024   1.6190  11.2234  18.2740
    18.2740  21.1169  23.1784

          k =-0.4000 0.4000-0.4000 (  1937 PWs)   bands (ev):

    -5.2659  -5.2131  -5.2131  -4.9446  -4.9446   2.8804   8.6963  17.8656
    17.8656  21.1878  22.2231

          k = 0.5000-0.5000 0.5000 (  1946 PWs)   bands (ev):

    -5.2723  -5.2203  -5.2203  -4.9211  -4.9211   3.7012   7.4494  17.7176
    17.7176  21.3865  21.7301

          k = 0.0000 0.2000 0.0000 (  1941 PWs)   bands (ev):

    -5.2502  -5.2008  -5.2008  -5.0919  -5.0596   0.0870  18.1901  18.5774
    18.5774  21.1820  24.1173

          k =-0.1000 0.3000-0.1000 (  1945 PWs)   bands (ev):

    -5.2599  -5.1736  -5.1694  -5.1024  -5.0394   0.5575  15.3813  17.7868
    18.3584  21.3289  22.7874

          k =-0.2000 0.4000-0.2000 (  1944 PWs)   bands (ev):

    -5.2610  -5.1819  -5.1635  -5.0654  -4.9901   1.4238  12.3062  17.2242
    17.6686  20.9681  23.2293

          k =-0.3000 0.5000-0.3000 (  1935 PWs)   bands (ev):

    -5.2622  -5.2040  -5.1784  -5.0045  -4.9374   2.6144   9.6177  16.8813
    16.9861  20.4715  23.5232

          k = 0.6000-0.4000 0.6000 (  1942 PWs)   bands (ev):

    -5.2603  -5.2185  -5.1920  -4.9564  -4.9194   3.7229   7.8191  16.2387
    17.1237  20.4101  23.1376

          k = 0.5000-0.3000 0.5000 (  1941 PWs)   bands (ev):

    -5.2514  -5.2188  -5.1930  -4.9495  -4.9430   3.4259   8.2586  15.8930
    17.6395  20.7571  22.7802

          k = 0.4000-0.2000 0.4000 (  1942 PWs)   bands (ev):

    -5.2426  -5.2038  -5.1806  -5.0158  -4.9677   2.1910  10.4598  15.9095
    18.4555  21.4673  22.6353

          k = 0.3000-0.1000 0.3000 (  1940 PWs)   bands (ev):

    -5.2393  -5.1873  -5.1698  -5.0816  -5.0136   1.0928  13.2854  16.3125
    19.3371  22.1930  22.9657

          k = 0.2000 0.0000 0.2000 (  1945 PWs)   bands (ev):

    -5.2386  -5.1961  -5.1918  -5.0906  -5.0523   0.3561  16.0999  17.3466
    19.7789  22.0147  24.1662

          k = 0.0000 0.4000 0.0000 (  1956 PWs)   bands (ev):

    -5.2975  -5.1478  -5.1169  -5.1169  -5.0250   0.8924  15.7301  16.8078
    16.8078  20.0956  20.9435

          k =-0.1000 0.5000-0.1000 (  1946 PWs)   bands (ev):

    -5.3110  -5.1815  -5.0898  -5.0682  -4.9844   1.6236  13.3679  16.0583
    16.1254  19.7825  20.8990

          k =-0.2000 0.6000-0.2000 (  1936 PWs)   bands (ev):

    -5.3020  -5.1944  -5.0999  -5.0376  -4.9316   2.7003  10.7852  14.9354
    15.8339  19.3402  22.9070

          k = 0.7000-0.3000 0.7000 (  1940 PWs)   bands (ev):

    -5.2868  -5.1818  -5.1169  -5.0215  -4.9149   3.8715   8.7757  13.9404
    15.9795  19.3125  25.2143

          k = 0.6000-0.2000 0.6000 (  1941 PWs)   bands (ev):

    -5.2649  -5.1730  -5.1265  -5.0056  -4.9486   4.1192   8.4397  13.2956
    16.5638  19.6516  24.9223

          k = 0.5000-0.1000 0.5000 (  1940 PWs)   bands (ev):

    -5.2344  -5.1890  -5.1229  -5.0211  -4.9891   3.0837  10.1042  13.1265
    17.5233  20.3482  24.5094

          k = 0.4000 0.0000 0.4000 (  1947 PWs)   bands (ev):

    -5.2187  -5.2035  -5.1068  -5.1047  -4.9883   1.9410  12.1715  13.8526
    18.6536  21.4043  23.8190

          k = 0.0000 0.6000 0.0000 (  1960 PWs)   bands (ev):

    -5.3557  -5.2259  -5.0089  -5.0089  -4.9820   2.2163  12.9161  15.3043
    15.3043  18.7942  19.2930

          k =-0.1000 0.7000-0.1000 (  1945 PWs)   bands (ev):

    -5.3624  -5.2514  -5.0062  -4.9746  -4.9293   3.1582  11.2315  13.9814
    14.8879  18.5153  20.0856

          k = 0.8000-0.2000 0.8000 (  1934 PWs)   bands (ev):

    -5.3386  -5.2310  -5.0234  -4.9853  -4.9077   4.2571   9.6955  12.3332
    14.9327  18.5288  22.3548

          k = 0.7000-0.1000 0.7000 (  1930 PWs)   bands (ev):

    -5.3081  -5.1567  -5.0414  -5.0364  -4.9382   4.7998   9.1998  11.1438
    15.4431  18.8220  25.1681

          k = 0.6000-0.0000 0.6000 (  1933 PWs)   bands (ev):

    -5.2712  -5.1162  -5.0651  -5.0589  -4.9964   4.1345  10.0188  10.9896
    16.3615  19.4243  26.6875

          k = 0.0000 0.8000 0.0000 (  1944 PWs)   bands (ev):

    -5.4022  -5.2949  -4.9468  -4.9179  -4.9179   3.9447  10.0968  14.3289
    14.3289  17.7095  18.8188

          k = 0.9000-0.1000 0.9000 (  1940 PWs)   bands (ev):

    -5.3940  -5.2993  -4.9530  -4.9124  -4.8948   4.8430   9.0621  12.9973
    14.2351  17.9519  19.7064

          k = 0.8000 0.0000 0.8000 (  1930 PWs)   bands (ev):

    -5.3535  -5.2479  -4.9791  -4.9614  -4.9131   5.2143   9.0985  11.2227
    14.6222  18.2856  22.1571

          k = 0.0000-1.0000 0.0000 (  1964 PWs)   bands (ev):

    -5.4201  -5.3224  -4.9334  -4.8824  -4.8824   5.2162   8.4287  13.9920
    13.9920  17.3859  18.6630

          k =-0.2000 0.4000 0.0000 (  1951 PWs)   bands (ev):

    -5.2693  -5.1688  -5.1206  -5.1161  -5.0068   1.1593  14.0075  15.5996
    18.2437  21.6078  21.6805

          k =-0.3000 0.5000-0.1000 (  1943 PWs)   bands (ev):

    -5.2590  -5.1915  -5.1277  -5.0604  -4.9674   2.1346  11.5576  14.6499
    17.3243  21.0619  23.0704

          k = 0.6000-0.4000 0.8000 (  1935 PWs)   bands (ev):

    -5.2459  -5.2148  -5.1338  -5.0135  -4.9382   3.3450   9.2208  14.3899
    16.4217  20.7611  23.1835

          k = 0.5000-0.3000 0.7000 (  1936 PWs)   bands (ev):

    -5.2336  -5.2325  -5.1345  -4.9948  -4.9282   4.1004   8.0747  14.3626
    16.0457  20.6689  22.9930

          k =-0.2000 0.6000 0.0000 (  1950 PWs)   bands (ev):

    -5.3182  -5.2105  -5.0754  -5.0115  -4.9568   2.4631  12.0983  14.1734
    15.5691  20.0779  20.7817

          k = 0.7000-0.3000 0.9000 (  1936 PWs)   bands (ev):

    -5.2951  -5.2137  -5.0849  -4.9931  -4.9316   3.5742  10.2913  13.1009
    14.7335  20.1892  22.6694

          k = 0.6000-0.2000 0.8000 (  1940 PWs)   bands (ev):

    -5.2719  -5.1839  -5.0823  -5.0322  -4.9226   4.5151   8.9464  12.3631
    14.6244  20.3855  24.4140

          k = 0.5000-0.1000 0.7000 (  1939 PWs)   bands (ev):

    -5.2474  -5.1801  -5.0858  -5.0379  -4.9525   4.2452   9.3761  11.9490
    15.1896  20.8523  24.0744

          k = 0.4000 0.0000 0.6000 (  1936 PWs)   bands (ev):

    -5.2203  -5.2179  -5.1099  -5.0153  -4.9825   3.1587  10.8134  12.4329
    16.1980  21.4411  23.6075

          k = 0.8000-0.2000 1.0000 (  1945 PWs)   bands (ev):

    -5.3584  -5.2694  -5.0041  -4.9314  -4.9187   4.1200  10.0876  13.2537
    13.6973  19.2555  20.2462

          k = 0.7000-0.1000 0.9000 (  1932 PWs)   bands (ev):

    -5.3203  -5.2407  -5.0251  -4.9774  -4.8995   4.9835   9.4291  11.5760
    13.5936  19.7734  22.3166

          k = 0.6000 0.0000 0.8000 (  1937 PWs)   bands (ev):

    -5.2840  -5.1572  -5.0846  -5.0240  -4.9223   5.0007  10.0558  10.1888
    14.1760  20.2396  25.1971

          k =-0.2000-1.0000 0.0000 (  1948 PWs)   bands (ev):

    -5.3737  -5.2938  -4.9576  -4.9395  -4.8824   5.2546   8.7657  12.9360
    13.1169  18.9971  20.0667

          k = 0.6000-0.2000 1.0000 (  1928 PWs)   bands (ev):

    -5.2394  -5.2272  -5.1013  -4.9935  -4.9207   4.5576   9.9968  11.5212
    13.4738  21.9517  23.0527

          k = 0.5000-0.1000 0.9000 (  1932 PWs)   bands (ev):

    -5.2338  -5.1776  -5.1320  -5.0250  -4.9005   5.0775   9.7481  10.9901
    12.9706  22.2633  23.9743

          k =-0.4000-1.0000 0.0000 (  1930 PWs)   bands (ev):

    -5.2479  -5.2351  -5.0825  -5.0094  -4.8823   5.3204   9.7326  11.2069
    12.2309  22.0180  22.8566

     the Fermi energy is    11.8996 ev

!    total energy              =    -135.43526477 Ry
     Harris-Foulkes estimate   =    -135.43526477 Ry
     estimated scf accuracy    <          6.2E-10 Ry

     The total energy is the sum of the following terms:

     one-electron contribution =     -31.47392725 Ry
     hartree contribution      =      26.10223674 Ry
     xc contribution           =     -32.62485617 Ry
     ewald contribution        =     -97.43857717 Ry
     smearing contrib. (-TS)   =      -0.00014094 Ry

     convergence has been achieved in   6 iterations

     Writing output data file Pb.save/

     init_run     :      1.75s CPU      1.79s WALL (       1 calls)
     electrons    :     19.42s CPU     20.00s WALL (       1 calls)

     Called by init_run:
     wfcinit      :      0.77s CPU      0.78s WALL (       1 calls)
     potinit      :      0.08s CPU      0.08s WALL (       1 calls)
     hinit0       :      0.77s CPU      0.77s WALL (       1 calls)

     Called by electrons:
     c_bands      :     15.35s CPU     15.41s WALL (       7 calls)
     sum_band     :      3.15s CPU      3.45s WALL (       7 calls)
     v_of_rho     :      0.40s CPU      0.41s WALL (       7 calls)
     newd         :      0.60s CPU      0.86s WALL (       7 calls)
     mix_rho      :      0.03s CPU      0.03s WALL (       7 calls)

     Called by c_bands:
     init_us_2    :      0.34s CPU      0.35s WALL (     705 calls)
     cegterg      :     14.56s CPU     14.61s WALL (     329 calls)

     Called by sum_band:
     sum_band:bec :      0.00s CPU      0.00s WALL (     329 calls)
     addusdens    :      0.65s CPU      0.95s WALL (       7 calls)

     Called by *egterg:
     h_psi        :     11.77s CPU     11.81s WALL (    1241 calls)
     s_psi        :      0.59s CPU      0.59s WALL (    1241 calls)
     g_psi        :      0.08s CPU      0.08s WALL (     865 calls)
     cdiaghg      :      0.25s CPU      0.25s WALL (    1147 calls)

     Called by h_psi:
     h_psi:pot    :     11.74s CPU     11.78s WALL (    1241 calls)
     h_psi:calbec :      0.63s CPU      0.63s WALL (    1241 calls)
     vloc_psi     :     10.50s CPU     10.54s WALL (    1241 calls)
     add_vuspsi   :      0.60s CPU      0.60s WALL (    1241 calls)

     General routines
     calbec       :      0.84s CPU      0.85s WALL (    1570 calls)
     fft          :      0.18s CPU      0.19s WALL (      90 calls)
     ffts         :      0.02s CPU      0.02s WALL (      14 calls)
     fftw         :     11.00s CPU     11.04s WALL (   23423 calls)
     interpolate  :      0.03s CPU      0.03s WALL (       7 calls)

     Parallel routines

     PWSCF        :     21.94s CPU     22.59s WALL


   This run was terminated on:  19:58:58  30Jun2021            

=------------------------------------------------------------------------------=
   JOB DONE.
=------------------------------------------------------------------------------=
