
     Program PWSCF v.6.4.1 starts on 30Jun2021 at 20: 1:14 

     This program is part of the open-source Quantum ESPRESSO suite
     for quantum simulation of materials; please cite
         "P. Giannozzi et al., J. Phys.:Condens. Matter 21 395502 (2009);
         "P. Giannozzi et al., J. Phys.:Condens. Matter 29 465901 (2017);
          URL http://www.quantum-espresso.org", 
     in publications or presentations arising from this work. More details at
     http://www.quantum-espresso.org/quote

     Parallel version (MPI), running on     1 processors

     MPI processes distributed on     1 nodes
     Waiting for input...
     Reading input from standard input

     Current dimensions of program PWSCF are:
     Max number of different atomic species (ntypx) = 10
     Max number of k-points (npk) =  40000
     Max angular momentum in pseudopotentials (lmaxx) =  3
               file Pb.pbe-dn-rrkjus_psl.1.0.0.UPF: wavefunction(s)  6S 5D renormalized

     Subspace diagonalization in iterative solution of the eigenvalue problem:
     a serial algorithm will be used


     G-vector sticks info
     --------------------
     sticks:   dense  smooth     PW     G-vecs:    dense   smooth      PW
     Sum        1639     823    253                43895    15593    2685


     Title: 
     Lead                                                                       


     bravais-lattice index     =            2
     lattice parameter (alat)  =       9.2226  a.u.
     unit-cell volume          =     196.1075 (a.u.)^3
     number of atoms/cell      =            1
     number of atomic types    =            1
     number of electrons       =        14.00
     number of Kohn-Sham states=           11
     kinetic-energy cutoff     =      70.0000  Ry
     charge density cutoff     =     560.0000  Ry
     convergence threshold     =      1.0E-09
     mixing beta               =       0.7000
     number of iterations used =            8  plain     mixing
     Exchange-correlation      = PBE ( 1  4  3  4 0 0)

     celldm(1)=   9.222558  celldm(2)=   0.000000  celldm(3)=   0.000000
     celldm(4)=   0.000000  celldm(5)=   0.000000  celldm(6)=   0.000000

     crystal axes: (cart. coord. in units of alat)
               a(1) = (  -0.500000   0.000000   0.500000 )  
               a(2) = (   0.000000   0.500000   0.500000 )  
               a(3) = (  -0.500000   0.500000   0.000000 )  

     reciprocal axes: (cart. coord. in units 2 pi/alat)
               b(1) = ( -1.000000 -1.000000  1.000000 )  
               b(2) = (  1.000000  1.000000  1.000000 )  
               b(3) = ( -1.000000  1.000000 -1.000000 )  


     PseudoPot. # 1 for Pb read from file:
     /home/elena/qe-6.7/pseudo/Pb.pbe-dn-rrkjus_psl.1.0.0.UPF
     MD5 check sum: 1cf8f5e18580e6a90a35f98a53d336de
     Pseudo is Ultrasoft + core correction, Zval = 14.0
     Generated using "atomic" code by A. Dal Corso v.6.3
     Using radial grid of 1281 points,  6 beta functions with: 
                l(1) =   0
                l(2) =   0
                l(3) =   1
                l(4) =   1
                l(5) =   2
                l(6) =   2
     Q(r) pseudized with 0 coefficients 


     atomic species   valence    mass     pseudopotential
        Pb            14.00   207.20000     Pb( 1.00)

     48 Sym. Ops., with inversion, found



   Cartesian axes

     site n.     atom                  positions (alat units)
         1           Pb  tau(   1) = (   0.0000000   0.0000000   0.0000000  )

     number of k points=    72  Methfessel-Paxton smearing, width (Ry)=  0.0900
                       cart. coord. in units 2pi/alat
        k(    1) = (   0.0000000   0.0000000   0.0000000), wk =   0.0011574
        k(    2) = (  -0.0833333   0.0833333  -0.0833333), wk =   0.0092593
        k(    3) = (  -0.1666667   0.1666667  -0.1666667), wk =   0.0092593
        k(    4) = (  -0.2500000   0.2500000  -0.2500000), wk =   0.0092593
        k(    5) = (  -0.3333333   0.3333333  -0.3333333), wk =   0.0092593
        k(    6) = (  -0.4166667   0.4166667  -0.4166667), wk =   0.0092593
        k(    7) = (   0.5000000  -0.5000000   0.5000000), wk =   0.0046296
        k(    8) = (   0.0000000   0.1666667   0.0000000), wk =   0.0069444
        k(    9) = (  -0.0833333   0.2500000  -0.0833333), wk =   0.0277778
        k(   10) = (  -0.1666667   0.3333333  -0.1666667), wk =   0.0277778
        k(   11) = (  -0.2500000   0.4166667  -0.2500000), wk =   0.0277778
        k(   12) = (  -0.3333333   0.5000000  -0.3333333), wk =   0.0277778
        k(   13) = (   0.5833333  -0.4166667   0.5833333), wk =   0.0277778
        k(   14) = (   0.5000000  -0.3333333   0.5000000), wk =   0.0277778
        k(   15) = (   0.4166667  -0.2500000   0.4166667), wk =   0.0277778
        k(   16) = (   0.3333333  -0.1666667   0.3333333), wk =   0.0277778
        k(   17) = (   0.2500000  -0.0833333   0.2500000), wk =   0.0277778
        k(   18) = (   0.1666667  -0.0000000   0.1666667), wk =   0.0138889
        k(   19) = (   0.0000000   0.3333333   0.0000000), wk =   0.0069444
        k(   20) = (  -0.0833333   0.4166667  -0.0833333), wk =   0.0277778
        k(   21) = (  -0.1666667   0.5000000  -0.1666667), wk =   0.0277778
        k(   22) = (  -0.2500000   0.5833333  -0.2500000), wk =   0.0277778
        k(   23) = (   0.6666667  -0.3333333   0.6666667), wk =   0.0277778
        k(   24) = (   0.5833333  -0.2500000   0.5833333), wk =   0.0277778
        k(   25) = (   0.5000000  -0.1666667   0.5000000), wk =   0.0277778
        k(   26) = (   0.4166667  -0.0833333   0.4166667), wk =   0.0277778
        k(   27) = (   0.3333333   0.0000000   0.3333333), wk =   0.0138889
        k(   28) = (   0.0000000   0.5000000   0.0000000), wk =   0.0069444
        k(   29) = (  -0.0833333   0.5833333  -0.0833333), wk =   0.0277778
        k(   30) = (  -0.1666667   0.6666667  -0.1666667), wk =   0.0277778
        k(   31) = (   0.7500000  -0.2500000   0.7500000), wk =   0.0277778
        k(   32) = (   0.6666667  -0.1666667   0.6666667), wk =   0.0277778
        k(   33) = (   0.5833333  -0.0833333   0.5833333), wk =   0.0277778
        k(   34) = (   0.5000000   0.0000000   0.5000000), wk =   0.0138889
        k(   35) = (   0.0000000   0.6666667   0.0000000), wk =   0.0069444
        k(   36) = (  -0.0833333   0.7500000  -0.0833333), wk =   0.0277778
        k(   37) = (   0.8333333  -0.1666667   0.8333333), wk =   0.0277778
        k(   38) = (   0.7500000  -0.0833333   0.7500000), wk =   0.0277778
        k(   39) = (   0.6666667  -0.0000000   0.6666667), wk =   0.0138889
        k(   40) = (   0.0000000   0.8333333   0.0000000), wk =   0.0069444
        k(   41) = (   0.9166667  -0.0833333   0.9166667), wk =   0.0277778
        k(   42) = (   0.8333333   0.0000000   0.8333333), wk =   0.0138889
        k(   43) = (   0.0000000  -1.0000000   0.0000000), wk =   0.0034722
        k(   44) = (  -0.1666667   0.3333333   0.0000000), wk =   0.0277778
        k(   45) = (  -0.2500000   0.4166667  -0.0833333), wk =   0.0555556
        k(   46) = (  -0.3333333   0.5000000  -0.1666667), wk =   0.0555556
        k(   47) = (   0.5833333  -0.4166667   0.7500000), wk =   0.0555556
        k(   48) = (   0.5000000  -0.3333333   0.6666667), wk =   0.0277778
        k(   49) = (  -0.1666667   0.5000000   0.0000000), wk =   0.0277778
        k(   50) = (  -0.2500000   0.5833333  -0.0833333), wk =   0.0555556
        k(   51) = (   0.6666667  -0.3333333   0.8333333), wk =   0.0555556
        k(   52) = (   0.5833333  -0.2500000   0.7500000), wk =   0.0555556
        k(   53) = (   0.5000000  -0.1666667   0.6666667), wk =   0.0555556
        k(   54) = (   0.4166667  -0.0833333   0.5833333), wk =   0.0555556
        k(   55) = (   0.3333333   0.0000000   0.5000000), wk =   0.0277778
        k(   56) = (  -0.1666667   0.6666667  -0.0000000), wk =   0.0277778
        k(   57) = (   0.7500000  -0.2500000   0.9166667), wk =   0.0555556
        k(   58) = (   0.6666667  -0.1666667   0.8333333), wk =   0.0555556
        k(   59) = (   0.5833333  -0.0833333   0.7500000), wk =   0.0555556
        k(   60) = (   0.5000000   0.0000000   0.6666667), wk =   0.0277778
        k(   61) = (   0.8333333  -0.1666667   1.0000000), wk =   0.0277778
        k(   62) = (   0.7500000  -0.0833333   0.9166667), wk =   0.0555556
        k(   63) = (   0.6666667   0.0000000   0.8333333), wk =   0.0277778
        k(   64) = (  -0.1666667  -1.0000000  -0.0000000), wk =   0.0138889
        k(   65) = (   0.6666667  -0.3333333   1.0000000), wk =   0.0277778
        k(   66) = (   0.5833333  -0.2500000   0.9166667), wk =   0.0555556
        k(   67) = (   0.5000000  -0.1666667   0.8333333), wk =   0.0277778
        k(   68) = (   0.6666667  -0.1666667   1.0000000), wk =   0.0277778
        k(   69) = (   0.5833333  -0.0833333   0.9166667), wk =   0.0555556
        k(   70) = (   0.5000000   0.0000000   0.8333333), wk =   0.0277778
        k(   71) = (  -0.3333333  -1.0000000   0.0000000), wk =   0.0138889
        k(   72) = (  -0.5000000  -1.0000000   0.0000000), wk =   0.0069444

     Dense  grid:    43895 G-vectors     FFT dimensions: (  50,  50,  50)

     Smooth grid:    15593 G-vectors     FFT dimensions: (  36,  36,  36)

     Estimated max dynamical RAM per process >     178.96 MB

     Initial potential from superposition of free atoms

     starting charge   13.99765, renormalised to   14.00000
     Starting wfcs are    9 randomized atomic wfcs +    2 random wfcs

     total cpu time spent up to now is        3.5 secs

     Self-consistent Calculation

     iteration #  1     ecut=    70.00 Ry     beta= 0.70
     Davidson diagonalization with overlap
     ethr =  1.00E-02,  avg # of iterations =  4.2

     Threshold (ethr) on eigenvalues was too large:
     Diagonalizing with lowered threshold

     Davidson diagonalization with overlap
     ethr =  1.65E-05,  avg # of iterations =  3.5

     total cpu time spent up to now is       14.1 secs

     total energy              =    -135.43459996 Ry
     Harris-Foulkes estimate   =    -135.43599749 Ry
     estimated scf accuracy    <       0.00233400 Ry

     iteration #  2     ecut=    70.00 Ry     beta= 0.70
     Davidson diagonalization with overlap
     ethr =  1.67E-05,  avg # of iterations =  2.1

     total cpu time spent up to now is       18.5 secs

     total energy              =    -135.43507138 Ry
     Harris-Foulkes estimate   =    -135.43518774 Ry
     estimated scf accuracy    <       0.00020504 Ry

     iteration #  3     ecut=    70.00 Ry     beta= 0.70
     Davidson diagonalization with overlap
     ethr =  1.46E-06,  avg # of iterations =  2.2

     total cpu time spent up to now is       22.7 secs

     total energy              =    -135.43511392 Ry
     Harris-Foulkes estimate   =    -135.43511497 Ry
     estimated scf accuracy    <       0.00000973 Ry

     iteration #  4     ecut=    70.00 Ry     beta= 0.70
     Davidson diagonalization with overlap
     ethr =  6.95E-08,  avg # of iterations =  2.0

     total cpu time spent up to now is       27.0 secs

     total energy              =    -135.43511510 Ry
     Harris-Foulkes estimate   =    -135.43511504 Ry
     estimated scf accuracy    <       0.00000010 Ry

     iteration #  5     ecut=    70.00 Ry     beta= 0.70
     Davidson diagonalization with overlap
     ethr =  6.96E-10,  avg # of iterations =  2.1

     total cpu time spent up to now is       31.7 secs

     total energy              =    -135.43511513 Ry
     Harris-Foulkes estimate   =    -135.43511514 Ry
     estimated scf accuracy    <       0.00000001 Ry

     iteration #  6     ecut=    70.00 Ry     beta= 0.70
     Davidson diagonalization with overlap
     ethr =  8.99E-11,  avg # of iterations =  2.0

     total cpu time spent up to now is       37.0 secs

     End of self-consistent calculation

          k = 0.0000 0.0000 0.0000 (  1917 PWs)   bands (ev):

    -5.2305  -5.2305  -5.2305  -5.0714  -5.0714  -0.1807  19.6446  19.6446
    19.6446  21.9775  23.7525

          k =-0.0833 0.0833-0.0833 (  1947 PWs)   bands (ev):

    -5.2312  -5.2194  -5.2194  -5.0723  -5.0723  -0.0410  18.0459  19.4658
    19.4658  21.6795  24.3727

          k =-0.1667 0.1667-0.1667 (  1940 PWs)   bands (ev):

    -5.2347  -5.1973  -5.1973  -5.0655  -5.0655   0.3793  15.3542  19.0397
    19.0397  21.3618  24.9126

          k =-0.2500 0.2500-0.2500 (  1949 PWs)   bands (ev):

    -5.2431  -5.1906  -5.1906  -5.0320  -5.0320   1.0773  12.7003  18.5473
    18.5473  21.1646  23.7904

          k =-0.3333 0.3333-0.3333 (  1940 PWs)   bands (ev):

    -5.2552  -5.2013  -5.2013  -4.9797  -4.9797   2.0235  10.3067  18.1145
    18.1145  21.1159  22.8193

          k =-0.4167 0.4167-0.4167 (  1937 PWs)   bands (ev):

    -5.2663  -5.2138  -5.2138  -4.9362  -4.9362   3.0878   8.3599  17.8217
    17.8217  21.2205  22.1006

          k = 0.5000-0.5000 0.5000 (  1946 PWs)   bands (ev):

    -5.2709  -5.2190  -5.2190  -4.9197  -4.9197   3.7019   7.4497  17.7183
    17.7183  21.3864  21.7303

          k = 0.0000 0.1667 0.0000 (  1941 PWs)   bands (ev):

    -5.2434  -5.2087  -5.2087  -5.0848  -5.0623   0.0055  18.5526  18.8538
    18.8538  21.3719  24.5247

          k =-0.0833 0.2500-0.0833 (  1944 PWs)   bands (ev):

    -5.2509  -5.1857  -5.1832  -5.0950  -5.0499   0.3322  16.2627  18.2030
    18.7487  21.3978  23.4608

          k =-0.1667 0.3333-0.1667 (  1938 PWs)   bands (ev):

    -5.2529  -5.1781  -5.1688  -5.0800  -5.0186   0.9381  13.6219  17.6595
    18.2760  21.4469  23.0789

          k =-0.2500 0.4167-0.2500 (  1941 PWs)   bands (ev):

    -5.2559  -5.1926  -5.1753  -5.0334  -4.9707   1.8048  11.1599  17.2988
    17.6672  20.9586  23.2386

          k =-0.3333 0.5000-0.3333 (  1939 PWs)   bands (ev):

    -5.2596  -5.2097  -5.1891  -4.9815  -4.9310   2.8500   9.0584  17.0736
    17.1665  20.6433  23.0935

          k = 0.5833-0.4167 0.5833 (  1941 PWs)   bands (ev):

    -5.2602  -5.2196  -5.1991  -4.9448  -4.9185   3.7150   7.7094  16.6074
    17.2875  20.6183  22.7866

          k = 0.5000-0.3333 0.5000 (  1939 PWs)   bands (ev):

    -5.2556  -5.2183  -5.1997  -4.9396  -4.9351   3.4961   8.0272  16.3456
    17.6611  20.8651  22.5339

          k = 0.4167-0.2500 0.4167 (  1936 PWs)   bands (ev):

    -5.2481  -5.2065  -5.1907  -4.9885  -4.9544   2.4920   9.7101  16.3230
    18.2475  21.3380  22.4522

          k = 0.3333-0.1667 0.3333 (  1938 PWs)   bands (ev):

    -5.2415  -5.1912  -5.1778  -5.0479  -4.9932   1.4893  11.9506  16.5460
    18.9444  21.8370  22.7321

          k = 0.2500-0.0833 0.2500 (  1942 PWs)   bands (ev):

    -5.2381  -5.1849  -5.1801  -5.0861  -5.0337   0.7057  14.4648  17.0199
    19.5507  22.0185  23.6053

          k = 0.1667-0.0000 0.1667 (  1945 PWs)   bands (ev):

    -5.2360  -5.2053  -5.1979  -5.0847  -5.0591   0.1923  16.8463  17.9298
    19.7717  21.8608  24.3187

          k = 0.0000 0.3333 0.0000 (  1960 PWs)   bands (ev):

    -5.2781  -5.1479  -5.1479  -5.1242  -5.0371   0.5650  16.5949  17.3910
    17.3910  20.4333  21.9264

          k =-0.0833 0.4167-0.0833 (  1955 PWs)   bands (ev):

    -5.2909  -5.1560  -5.1192  -5.1027  -5.0107   1.0768  14.5116  16.7470
    16.9940  20.4389  21.1893

          k =-0.1667 0.5000-0.1667 (  1943 PWs)   bands (ev):

    -5.2891  -5.1781  -5.1182  -5.0648  -4.9647   1.8539  12.1370  16.2405
    16.3390  19.9391  22.4284

          k =-0.2500 0.5833-0.2500 (  1943 PWs)   bands (ev):

    -5.2816  -5.1884  -5.1311  -5.0317  -4.9259   2.8380  10.0005  15.4014
    16.2066  19.6437  24.1936

          k = 0.6667-0.3333 0.6667 (  1942 PWs)   bands (ev):

    -5.2719  -5.1907  -5.1443  -5.0026  -4.9152   3.7999   8.4132  14.6893
    16.3710  19.6434  24.6590

          k = 0.5833-0.2500 0.5833 (  1948 PWs)   bands (ev):

    -5.2564  -5.1934  -5.1510  -4.9811  -4.9396   3.9933   8.1441  14.2064
    16.8314  19.9110  24.2236

          k = 0.5000-0.1667 0.5000 (  1943 PWs)   bands (ev):

    -5.2346  -5.2009  -5.1477  -4.9931  -4.9730   3.1700   9.4342  14.0096
    17.5549  20.4384  23.9010

          k = 0.4167-0.0833 0.4167 (  1939 PWs)   bands (ev):

    -5.2193  -5.2048  -5.1354  -5.0610  -4.9807   2.1574  11.3975  14.1629
    18.4497  21.2279  23.6390

          k = 0.3333 0.0000 0.3333 (  1935 PWs)   bands (ev):

    -5.2312  -5.1884  -5.1376  -5.1044  -5.0026   1.3064  13.3381  14.9737
    19.2801  22.2750  23.0778

          k = 0.0000 0.5000 0.0000 (  1964 PWs)   bands (ev):

    -5.3252  -5.1844  -5.0620  -5.0620  -5.0022   1.4933  14.3572  16.0012
    16.0012  19.6534  19.7170

          k =-0.0833 0.5833-0.0833 (  1945 PWs)   bands (ev):

    -5.3371  -5.2119  -5.0438  -5.0240  -4.9638   2.1757  12.7163  15.1367
    15.5058  19.1205  20.1617

          k =-0.1667 0.6667-0.1667 (  1936 PWs)   bands (ev):

    -5.3274  -5.2181  -5.0540  -5.0085  -4.9221   3.0770  10.8731  13.9723
    15.3059  18.8760  21.7936

          k = 0.7500-0.2500 0.7500 (  1941 PWs)   bands (ev):

    -5.3098  -5.1923  -5.0687  -5.0166  -4.9102   4.0327   9.3294  12.9532
    15.4235  18.8837  23.8982

          k = 0.6667-0.1667 0.6667 (  1944 PWs)   bands (ev):

    -5.2890  -5.1490  -5.0808  -5.0369  -4.9347   4.5052   8.7132  12.2232
    15.8575  19.1230  26.1446

          k = 0.5833-0.0833 0.5833 (  1941 PWs)   bands (ev):

    -5.2623  -5.1402  -5.0871  -5.0316  -4.9880   3.9744   9.5268  11.8770
    16.5774  19.5928  25.8255

          k = 0.5000 0.0000 0.5000 (  1947 PWs)   bands (ev):

    -5.2326  -5.1774  -5.0932  -5.0483  -4.9982   3.0340  10.7942  12.3168
    17.5052  20.2979  25.1429

          k = 0.0000 0.6667 0.0000 (  1948 PWs)   bands (ev):

    -5.3720  -5.2504  -4.9730  -4.9730  -4.9672   2.7602  11.9474  14.9138
    14.9138  18.3315  19.0989

          k =-0.0833 0.7500-0.0833 (  1943 PWs)   bands (ev):

    -5.3771  -5.2698  -4.9796  -4.9477  -4.9195   3.5631  10.6953  13.8346
    14.6208  18.2485  19.6325

          k = 0.8333-0.1667 0.8333 (  1941 PWs)   bands (ev):

    -5.3564  -5.2565  -4.9937  -4.9575  -4.9030   4.4398   9.6615  12.3009
    14.6548  18.3261  21.3836

          k = 0.7500-0.0833 0.7500 (  1927 PWs)   bands (ev):

    -5.3279  -5.2002  -5.0107  -4.9999  -4.9227   4.9770   9.3318  10.9799
    15.0175  18.5460  23.6410

          k = 0.6667-0.0000 0.6667 (  1935 PWs)   bands (ev):

    -5.2963  -5.1180  -5.0638  -5.0366  -4.9626   4.7179   9.9758  10.2384
    15.6811  18.9623  26.1514

          k = 0.0000 0.8333 0.0000 (  1956 PWs)   bands (ev):

    -5.4061  -5.3019  -4.9415  -4.9058  -4.9058   4.2444   9.6786  14.2271
    14.2271  17.6088  18.7712

          k = 0.9167-0.0833 0.9167 (  1948 PWs)   bands (ev):

    -5.4001  -5.3052  -4.9450  -4.9020  -4.8904   4.9408   8.8937  13.2322
    14.1618  17.8482  19.3805

          k = 0.8333 0.0000 0.8333 (  1938 PWs)   bands (ev):

    -5.3673  -5.2714  -4.9649  -4.9376  -4.9024   5.2359   8.8966  11.7463
    14.4328  18.1549  21.2455

          k = 0.0000-1.0000 0.0000 (  1964 PWs)   bands (ev):

    -5.4186  -5.3211  -4.9321  -4.8809  -4.8809   5.2170   8.4291  13.9925
    13.9925  17.3860  18.6631

          k =-0.1667 0.3333 0.0000 (  1950 PWs)   bands (ev):

    -5.2603  -5.1687  -5.1507  -5.1093  -5.0270   0.7518  15.0339  16.4545
    18.7769  21.5300  22.3230

          k =-0.2500 0.4167-0.0833 (  1941 PWs)   bands (ev):

    -5.2576  -5.1784  -5.1364  -5.0873  -4.9913   1.4443  12.8570  15.5613
    18.2300  21.3612  22.7263

          k =-0.3333 0.5000-0.1667 (  1938 PWs)   bands (ev):

    -5.2512  -5.1988  -5.1466  -5.0362  -4.9548   2.3742  10.6054  15.1927
    17.4364  20.9183  23.2728

          k = 0.5833-0.4167 0.7500 (  1938 PWs)   bands (ev):

    -5.2454  -5.2182  -5.1552  -4.9918  -4.9315   3.4031   8.7455  15.0711
    16.7881  20.6778  22.9954

          k = 0.5000-0.3333 0.6667 (  1952 PWs)   bands (ev):

    -5.2404  -5.2291  -5.1583  -4.9728  -4.9253   3.9808   7.8870  15.0628
    16.5287  20.6020  22.8604

          k =-0.1667 0.5000 0.0000 (  1945 PWs)   bands (ev):

    -5.3019  -5.1797  -5.0962  -5.0645  -4.9823   1.6746  13.3388  15.1188
    16.7202  20.4611  20.7780

          k =-0.2500 0.5833-0.0833 (  1939 PWs)   bands (ev):

    -5.2926  -5.1965  -5.0991  -5.0294  -4.9498   2.5172  11.5069  14.2363
    15.9580  20.2291  22.1503

          k = 0.6667-0.3333 0.8333 (  1940 PWs)   bands (ev):

    -5.2767  -5.1966  -5.1033  -5.0201  -4.9261   3.5052   9.6878  13.7275
    15.3980  20.1571  23.8988

          k = 0.5833-0.2500 0.7500 (  1942 PWs)   bands (ev):

    -5.2619  -5.1920  -5.0964  -5.0272  -4.9240   4.2745   8.5307  13.2815
    15.3553  20.2994  23.9462

          k = 0.5000-0.1667 0.6667 (  1944 PWs)   bands (ev):

    -5.2434  -5.1976  -5.0972  -5.0245  -4.9461   4.0715   8.8407  12.9721
    15.7809  20.6465  23.6384

          k = 0.4167-0.0833 0.5833 (  1941 PWs)   bands (ev):

    -5.2203  -5.2149  -5.1095  -5.0258  -4.9718   3.1555  10.3136  12.9685
    16.5366  21.1593  23.4949

          k = 0.3333 0.0000 0.5000 (  1937 PWs)   bands (ev):

    -5.2408  -5.1961  -5.1130  -5.0676  -4.9763   2.2048  11.9251  13.6503
    17.4726  21.6464  22.9626

          k =-0.1667 0.6667-0.0000 (  1944 PWs)   bands (ev):

    -5.3441  -5.2361  -5.0351  -4.9744  -4.9428   2.9220  11.5892  14.0839
    14.8018  19.3555  20.1765

          k = 0.7500-0.2500 0.9167 (  1945 PWs)   bands (ev):

    -5.3252  -5.2363  -5.0459  -4.9660  -4.9205   3.8302  10.3138  12.9049
    14.3007  19.5557  21.6403

          k = 0.6667-0.1667 0.8333 (  1929 PWs)   bands (ev):

    -5.3005  -5.1987  -5.0604  -5.0011  -4.9133   4.6332   9.3422  11.8423
    14.3586  19.7329  23.7851

          k = 0.5833-0.0833 0.7500 (  1934 PWs)   bands (ev):

    -5.2761  -5.1434  -5.0813  -5.0402  -4.9364   4.7298   9.3704  11.1465
    14.8140  20.0949  25.4085

          k = 0.5000 0.0000 0.6667 (  1940 PWs)   bands (ev):

    -5.2482  -5.1592  -5.0947  -5.0212  -4.9791   4.0420  10.1168  11.2874
    15.5747  20.6353  25.0022

          k = 0.8333-0.1667 1.0000 (  1947 PWs)   bands (ev):

    -5.3749  -5.2830  -4.9776  -4.9219  -4.9063   4.3526   9.7372  13.4308
    13.6665  18.7623  19.8108

          k = 0.7500-0.0833 0.9167 (  1936 PWs)   bands (ev):

    -5.3446  -5.2636  -4.9917  -4.9570  -4.8932   5.0342   9.2265  11.9491
    13.6505  19.2367  21.3727

          k = 0.6667 0.0000 0.8333 (  1929 PWs)   bands (ev):

    -5.3100  -5.2015  -5.0313  -5.0037  -4.9092   5.1649   9.5742  10.6263
    14.0786  19.5946  23.6735

          k =-0.1667-1.0000-0.0000 (  1940 PWs)   bands (ev):

    -5.3862  -5.3008  -4.9492  -4.9210  -4.8808   5.2446   8.6639  13.2075
    13.3159  18.5740  19.6892

          k = 0.6667-0.3333 1.0000 (  1930 PWs)   bands (ev):

    -5.2664  -5.2131  -5.1016  -4.9777  -4.9627   3.3801  10.7917  12.6334
    15.0078  21.3560  22.3785

          k = 0.5833-0.2500 0.9167 (  1933 PWs)   bands (ev):

    -5.2390  -5.2093  -5.1014  -5.0056  -4.9338   4.2805   9.7156  11.9892
    14.2405  21.5672  23.5591

          k = 0.5000-0.1667 0.8333 (  1930 PWs)   bands (ev):

    -5.2378  -5.1924  -5.0876  -5.0410  -4.9185   4.7419   9.1118  11.8829
    13.9451  21.5748  23.5917

          k = 0.6667-0.1667 1.0000 (  1946 PWs)   bands (ev):

    -5.2875  -5.2403  -5.0612  -4.9714  -4.9074   4.6320   9.8573  11.9942
    13.1326  21.0731  21.9862

          k = 0.5833-0.0833 0.9167 (  1929 PWs)   bands (ev):

    -5.2537  -5.2017  -5.0965  -5.0118  -4.8939   5.1336   9.7616  11.0075
    12.8761  21.6296  23.8491

          k = 0.5000 0.0000 0.8333 (  1932 PWs)   bands (ev):

    -5.2378  -5.1626  -5.1351  -5.0216  -4.9087   4.9531  10.0564  10.6391
    13.3373  21.9590  24.7889

          k =-0.3333-1.0000 0.0000 (  1940 PWs)   bands (ev):

    -5.2953  -5.2524  -5.0275  -4.9914  -4.8809   5.3025   9.3467  11.7760
    12.4438  20.9635  21.8528

          k =-0.5000-1.0000 0.0000 (  1912 PWs)   bands (ev):

    -5.2207  -5.1651  -5.1651  -5.0198  -4.8807   5.3329  10.4175  10.4175
    12.1082  23.0930  24.4571

     the Fermi energy is    11.9243 ev

!    total energy              =    -135.43511513 Ry
     Harris-Foulkes estimate   =    -135.43511513 Ry
     estimated scf accuracy    <          6.1E-10 Ry

     The total energy is the sum of the following terms:

     one-electron contribution =     -31.47619631 Ry
     hartree contribution      =      26.10347802 Ry
     xc contribution           =     -32.62504625 Ry
     ewald contribution        =     -97.43857717 Ry
     smearing contrib. (-TS)   =       0.00122657 Ry

     convergence has been achieved in   6 iterations

     Writing output data file Pb.save/

     init_run     :      2.42s CPU      2.49s WALL (       1 calls)
     electrons    :     32.87s CPU     33.51s WALL (       1 calls)

     Called by init_run:
     wfcinit      :      1.23s CPU      1.25s WALL (       1 calls)
     potinit      :      0.08s CPU      0.09s WALL (       1 calls)
     hinit0       :      0.98s CPU      0.99s WALL (       1 calls)

     Called by electrons:
     c_bands      :     27.12s CPU     27.22s WALL (       7 calls)
     sum_band     :      4.82s CPU      5.09s WALL (       7 calls)
     v_of_rho     :      0.41s CPU      0.44s WALL (       7 calls)
     newd         :      0.61s CPU      0.89s WALL (       7 calls)
     mix_rho      :      0.03s CPU      0.04s WALL (       7 calls)

     Called by c_bands:
     init_us_2    :      0.59s CPU      0.59s WALL (    1080 calls)
     cegterg      :     25.73s CPU     25.82s WALL (     504 calls)

     Called by sum_band:
     sum_band:bec :      0.00s CPU      0.00s WALL (     504 calls)
     addusdens    :      0.72s CPU      0.97s WALL (       7 calls)

     Called by *egterg:
     h_psi        :     20.76s CPU     20.85s WALL (    1876 calls)
     s_psi        :      1.02s CPU      1.02s WALL (    1876 calls)
     g_psi        :      0.13s CPU      0.13s WALL (    1300 calls)
     cdiaghg      :      0.42s CPU      0.43s WALL (    1732 calls)

     Called by h_psi:
     h_psi:pot    :     20.69s CPU     20.78s WALL (    1876 calls)
     h_psi:calbec :      1.15s CPU      1.15s WALL (    1876 calls)
     vloc_psi     :     18.49s CPU     18.56s WALL (    1876 calls)
     add_vuspsi   :      1.04s CPU      1.05s WALL (    1876 calls)

     General routines
     calbec       :      1.51s CPU      1.52s WALL (    2380 calls)
     fft          :      0.19s CPU      0.20s WALL (      90 calls)
     ffts         :      0.02s CPU      0.02s WALL (      14 calls)
     fftw         :     18.97s CPU     19.06s WALL (   35858 calls)
     interpolate  :      0.03s CPU      0.03s WALL (       7 calls)

     Parallel routines

     PWSCF        :     36.31s CPU     37.08s WALL


   This run was terminated on:  20: 1:51  30Jun2021            

=------------------------------------------------------------------------------=
   JOB DONE.
=------------------------------------------------------------------------------=
