
     Program PWSCF v.6.4.1 starts on 30Jun2021 at 19:57:25 

     This program is part of the open-source Quantum ESPRESSO suite
     for quantum simulation of materials; please cite
         "P. Giannozzi et al., J. Phys.:Condens. Matter 21 395502 (2009);
         "P. Giannozzi et al., J. Phys.:Condens. Matter 29 465901 (2017);
          URL http://www.quantum-espresso.org", 
     in publications or presentations arising from this work. More details at
     http://www.quantum-espresso.org/quote

     Parallel version (MPI), running on     1 processors

     MPI processes distributed on     1 nodes
     Waiting for input...
     Reading input from standard input

     Current dimensions of program PWSCF are:
     Max number of different atomic species (ntypx) = 10
     Max number of k-points (npk) =  40000
     Max angular momentum in pseudopotentials (lmaxx) =  3
               file Pb.pbe-dn-rrkjus_psl.1.0.0.UPF: wavefunction(s)  6S 5D renormalized

     Subspace diagonalization in iterative solution of the eigenvalue problem:
     a serial algorithm will be used


     G-vector sticks info
     --------------------
     sticks:   dense  smooth     PW     G-vecs:    dense   smooth      PW
     Sum        1639     823    253                43895    15593    2685


     Title: 
     Lead                                                                       


     bravais-lattice index     =            2
     lattice parameter (alat)  =       9.2226  a.u.
     unit-cell volume          =     196.1075 (a.u.)^3
     number of atoms/cell      =            1
     number of atomic types    =            1
     number of electrons       =        14.00
     number of Kohn-Sham states=           11
     kinetic-energy cutoff     =      70.0000  Ry
     charge density cutoff     =     560.0000  Ry
     convergence threshold     =      1.0E-09
     mixing beta               =       0.7000
     number of iterations used =            8  plain     mixing
     Exchange-correlation      = PBE ( 1  4  3  4 0 0)

     celldm(1)=   9.222558  celldm(2)=   0.000000  celldm(3)=   0.000000
     celldm(4)=   0.000000  celldm(5)=   0.000000  celldm(6)=   0.000000

     crystal axes: (cart. coord. in units of alat)
               a(1) = (  -0.500000   0.000000   0.500000 )  
               a(2) = (   0.000000   0.500000   0.500000 )  
               a(3) = (  -0.500000   0.500000   0.000000 )  

     reciprocal axes: (cart. coord. in units 2 pi/alat)
               b(1) = ( -1.000000 -1.000000  1.000000 )  
               b(2) = (  1.000000  1.000000  1.000000 )  
               b(3) = ( -1.000000  1.000000 -1.000000 )  


     PseudoPot. # 1 for Pb read from file:
     /home/elena/qe-6.7/pseudo/Pb.pbe-dn-rrkjus_psl.1.0.0.UPF
     MD5 check sum: 1cf8f5e18580e6a90a35f98a53d336de
     Pseudo is Ultrasoft + core correction, Zval = 14.0
     Generated using "atomic" code by A. Dal Corso v.6.3
     Using radial grid of 1281 points,  6 beta functions with: 
                l(1) =   0
                l(2) =   0
                l(3) =   1
                l(4) =   1
                l(5) =   2
                l(6) =   2
     Q(r) pseudized with 0 coefficients 


     atomic species   valence    mass     pseudopotential
        Pb            14.00   207.20000     Pb( 1.00)

     48 Sym. Ops., with inversion, found



   Cartesian axes

     site n.     atom                  positions (alat units)
         1           Pb  tau(   1) = (   0.0000000   0.0000000   0.0000000  )

     number of k points=    47  Methfessel-Paxton smearing, width (Ry)=  0.0800
                       cart. coord. in units 2pi/alat
        k(    1) = (   0.0000000   0.0000000   0.0000000), wk =   0.0020000
        k(    2) = (  -0.1000000   0.1000000  -0.1000000), wk =   0.0160000
        k(    3) = (  -0.2000000   0.2000000  -0.2000000), wk =   0.0160000
        k(    4) = (  -0.3000000   0.3000000  -0.3000000), wk =   0.0160000
        k(    5) = (  -0.4000000   0.4000000  -0.4000000), wk =   0.0160000
        k(    6) = (   0.5000000  -0.5000000   0.5000000), wk =   0.0080000
        k(    7) = (   0.0000000   0.2000000   0.0000000), wk =   0.0120000
        k(    8) = (  -0.1000000   0.3000000  -0.1000000), wk =   0.0480000
        k(    9) = (  -0.2000000   0.4000000  -0.2000000), wk =   0.0480000
        k(   10) = (  -0.3000000   0.5000000  -0.3000000), wk =   0.0480000
        k(   11) = (   0.6000000  -0.4000000   0.6000000), wk =   0.0480000
        k(   12) = (   0.5000000  -0.3000000   0.5000000), wk =   0.0480000
        k(   13) = (   0.4000000  -0.2000000   0.4000000), wk =   0.0480000
        k(   14) = (   0.3000000  -0.1000000   0.3000000), wk =   0.0480000
        k(   15) = (   0.2000000   0.0000000   0.2000000), wk =   0.0240000
        k(   16) = (   0.0000000   0.4000000   0.0000000), wk =   0.0120000
        k(   17) = (  -0.1000000   0.5000000  -0.1000000), wk =   0.0480000
        k(   18) = (  -0.2000000   0.6000000  -0.2000000), wk =   0.0480000
        k(   19) = (   0.7000000  -0.3000000   0.7000000), wk =   0.0480000
        k(   20) = (   0.6000000  -0.2000000   0.6000000), wk =   0.0480000
        k(   21) = (   0.5000000  -0.1000000   0.5000000), wk =   0.0480000
        k(   22) = (   0.4000000   0.0000000   0.4000000), wk =   0.0240000
        k(   23) = (   0.0000000   0.6000000   0.0000000), wk =   0.0120000
        k(   24) = (  -0.1000000   0.7000000  -0.1000000), wk =   0.0480000
        k(   25) = (   0.8000000  -0.2000000   0.8000000), wk =   0.0480000
        k(   26) = (   0.7000000  -0.1000000   0.7000000), wk =   0.0480000
        k(   27) = (   0.6000000  -0.0000000   0.6000000), wk =   0.0240000
        k(   28) = (   0.0000000   0.8000000   0.0000000), wk =   0.0120000
        k(   29) = (   0.9000000  -0.1000000   0.9000000), wk =   0.0480000
        k(   30) = (   0.8000000   0.0000000   0.8000000), wk =   0.0240000
        k(   31) = (   0.0000000  -1.0000000   0.0000000), wk =   0.0060000
        k(   32) = (  -0.2000000   0.4000000   0.0000000), wk =   0.0480000
        k(   33) = (  -0.3000000   0.5000000  -0.1000000), wk =   0.0960000
        k(   34) = (   0.6000000  -0.4000000   0.8000000), wk =   0.0960000
        k(   35) = (   0.5000000  -0.3000000   0.7000000), wk =   0.0480000
        k(   36) = (  -0.2000000   0.6000000   0.0000000), wk =   0.0480000
        k(   37) = (   0.7000000  -0.3000000   0.9000000), wk =   0.0960000
        k(   38) = (   0.6000000  -0.2000000   0.8000000), wk =   0.0960000
        k(   39) = (   0.5000000  -0.1000000   0.7000000), wk =   0.0960000
        k(   40) = (   0.4000000   0.0000000   0.6000000), wk =   0.0480000
        k(   41) = (   0.8000000  -0.2000000   1.0000000), wk =   0.0480000
        k(   42) = (   0.7000000  -0.1000000   0.9000000), wk =   0.0960000
        k(   43) = (   0.6000000   0.0000000   0.8000000), wk =   0.0480000
        k(   44) = (  -0.2000000  -1.0000000   0.0000000), wk =   0.0240000
        k(   45) = (   0.6000000  -0.2000000   1.0000000), wk =   0.0480000
        k(   46) = (   0.5000000  -0.1000000   0.9000000), wk =   0.0480000
        k(   47) = (  -0.4000000  -1.0000000   0.0000000), wk =   0.0240000

     Dense  grid:    43895 G-vectors     FFT dimensions: (  50,  50,  50)

     Smooth grid:    15593 G-vectors     FFT dimensions: (  36,  36,  36)

     Estimated max dynamical RAM per process >     170.82 MB

     Initial potential from superposition of free atoms

     starting charge   13.99765, renormalised to   14.00000
     Starting wfcs are    9 randomized atomic wfcs +    2 random wfcs

     total cpu time spent up to now is        2.6 secs

     Self-consistent Calculation

     iteration #  1     ecut=    70.00 Ry     beta= 0.70
     Davidson diagonalization with overlap
     ethr =  1.00E-02,  avg # of iterations =  4.0

     Threshold (ethr) on eigenvalues was too large:
     Diagonalizing with lowered threshold

     Davidson diagonalization with overlap
     ethr =  1.66E-05,  avg # of iterations =  3.6

     total cpu time spent up to now is        8.9 secs

     total energy              =    -135.43472226 Ry
     Harris-Foulkes estimate   =    -135.43612027 Ry
     estimated scf accuracy    <       0.00233193 Ry

     iteration #  2     ecut=    70.00 Ry     beta= 0.70
     Davidson diagonalization with overlap
     ethr =  1.67E-05,  avg # of iterations =  2.1

     total cpu time spent up to now is       11.8 secs

     total energy              =    -135.43519347 Ry
     Harris-Foulkes estimate   =    -135.43530981 Ry
     estimated scf accuracy    <       0.00020470 Ry

     iteration #  3     ecut=    70.00 Ry     beta= 0.70
     Davidson diagonalization with overlap
     ethr =  1.46E-06,  avg # of iterations =  2.5

     total cpu time spent up to now is       14.6 secs

     total energy              =    -135.43523595 Ry
     Harris-Foulkes estimate   =    -135.43523701 Ry
     estimated scf accuracy    <       0.00000968 Ry

     iteration #  4     ecut=    70.00 Ry     beta= 0.70
     Davidson diagonalization with overlap
     ethr =  6.91E-08,  avg # of iterations =  1.9

     total cpu time spent up to now is       17.1 secs

     total energy              =    -135.43523712 Ry
     Harris-Foulkes estimate   =    -135.43523705 Ry
     estimated scf accuracy    <       0.00000010 Ry

     iteration #  5     ecut=    70.00 Ry     beta= 0.70
     Davidson diagonalization with overlap
     ethr =  6.91E-10,  avg # of iterations =  2.2

     total cpu time spent up to now is       20.0 secs

     total energy              =    -135.43523715 Ry
     Harris-Foulkes estimate   =    -135.43523715 Ry
     estimated scf accuracy    <       0.00000001 Ry

     iteration #  6     ecut=    70.00 Ry     beta= 0.70
     Davidson diagonalization with overlap
     ethr =  9.08E-11,  avg # of iterations =  2.1

     total cpu time spent up to now is       23.0 secs

     End of self-consistent calculation

          k = 0.0000 0.0000 0.0000 (  1917 PWs)   bands (ev):

    -5.2305  -5.2305  -5.2305  -5.0714  -5.0714  -0.1808  19.6445  19.6445
    19.6445  21.9775  23.7523

          k =-0.1000 0.1000-0.1000 (  1940 PWs)   bands (ev):

    -5.2315  -5.2152  -5.2152  -5.0721  -5.0721   0.0205  17.5286  19.3941
    19.3941  21.6091  24.5521

          k =-0.2000 0.2000-0.2000 (  1943 PWs)   bands (ev):

    -5.2374  -5.1918  -5.1918  -5.0558  -5.0558   0.6258  14.2708  18.8423
    18.8423  21.2661  24.4745

          k =-0.3000 0.3000-0.3000 (  1934 PWs)   bands (ev):

    -5.2502  -5.1959  -5.1959  -5.0010  -5.0010   1.6195  11.2238  18.2746
    18.2746  21.1169  23.1784

          k =-0.4000 0.4000-0.4000 (  1937 PWs)   bands (ev):

    -5.2645  -5.2117  -5.2117  -4.9432  -4.9432   2.8809   8.6966  17.8662
    17.8662  21.1878  22.2232

          k = 0.5000-0.5000 0.5000 (  1946 PWs)   bands (ev):

    -5.2709  -5.2190  -5.2190  -4.9197  -4.9197   3.7019   7.4496  17.7182
    17.7182  21.3863  21.7303

          k = 0.0000 0.2000 0.0000 (  1941 PWs)   bands (ev):

    -5.2488  -5.1994  -5.1994  -5.0906  -5.0583   0.0874  18.1906  18.5779
    18.5779  21.1819  24.1174

          k =-0.1000 0.3000-0.1000 (  1945 PWs)   bands (ev):

    -5.2585  -5.1722  -5.1680  -5.1010  -5.0380   0.5580  15.3817  17.7873
    18.3589  21.3290  22.7875

          k =-0.2000 0.4000-0.2000 (  1944 PWs)   bands (ev):

    -5.2596  -5.1805  -5.1621  -5.0640  -4.9887   1.4242  12.3066  17.2247
    17.6691  20.9681  23.2294

          k =-0.3000 0.5000-0.3000 (  1935 PWs)   bands (ev):

    -5.2608  -5.2026  -5.1770  -5.0031  -4.9360   2.6149   9.6181  16.8817
    16.9866  20.4714  23.5234

          k = 0.6000-0.4000 0.6000 (  1942 PWs)   bands (ev):

    -5.2589  -5.2171  -5.1906  -4.9550  -4.9180   3.7235   7.8194  16.2392
    17.1242  20.4101  23.1379

          k = 0.5000-0.3000 0.5000 (  1941 PWs)   bands (ev):

    -5.2500  -5.2174  -5.1916  -4.9481  -4.9415   3.4265   8.2589  15.8935
    17.6400  20.7570  22.7804

          k = 0.4000-0.2000 0.4000 (  1942 PWs)   bands (ev):

    -5.2412  -5.2025  -5.1792  -5.0144  -4.9663   2.1915  10.4602  15.9099
    18.4561  21.4673  22.6355

          k = 0.3000-0.1000 0.3000 (  1940 PWs)   bands (ev):

    -5.2379  -5.1859  -5.1684  -5.0802  -5.0122   1.0933  13.2858  16.3130
    19.3376  22.1930  22.9658

          k = 0.2000 0.0000 0.2000 (  1945 PWs)   bands (ev):

    -5.2372  -5.1947  -5.1904  -5.0893  -5.0510   0.3566  16.1004  17.3470
    19.7794  22.0147  24.1662

          k = 0.0000 0.4000 0.0000 (  1956 PWs)   bands (ev):

    -5.2961  -5.1464  -5.1155  -5.1155  -5.0237   0.8928  15.7305  16.8083
    16.8083  20.0957  20.9435

          k =-0.1000 0.5000-0.1000 (  1946 PWs)   bands (ev):

    -5.3096  -5.1801  -5.0884  -5.0668  -4.9830   1.6241  13.3683  16.0587
    16.1258  19.7826  20.8991

          k =-0.2000 0.6000-0.2000 (  1936 PWs)   bands (ev):

    -5.3006  -5.1930  -5.0986  -5.0362  -4.9301   2.7008  10.7855  14.9358
    15.8344  19.3403  22.9071

          k = 0.7000-0.3000 0.7000 (  1940 PWs)   bands (ev):

    -5.2854  -5.1804  -5.1155  -5.0201  -4.9134   3.8721   8.7760  13.9408
    15.9800  19.3125  25.2144

          k = 0.6000-0.2000 0.6000 (  1941 PWs)   bands (ev):

    -5.2636  -5.1716  -5.1252  -5.0042  -4.9471   4.1198   8.4400  13.2960
    16.5643  19.6516  24.9225

          k = 0.5000-0.1000 0.5000 (  1940 PWs)   bands (ev):

    -5.2330  -5.1876  -5.1216  -5.0197  -4.9877   3.0842  10.1046  13.1269
    17.5239  20.3482  24.5095

          k = 0.4000 0.0000 0.4000 (  1947 PWs)   bands (ev):

    -5.2173  -5.2021  -5.1054  -5.1032  -4.9870   1.9415  12.1719  13.8530
    18.6542  21.4043  23.8190

          k = 0.0000 0.6000 0.0000 (  1960 PWs)   bands (ev):

    -5.3543  -5.2246  -5.0075  -5.0075  -4.9806   2.2168  12.9166  15.3048
    15.3048  18.7942  19.2931

          k =-0.1000 0.7000-0.1000 (  1945 PWs)   bands (ev):

    -5.3610  -5.2501  -5.0048  -4.9731  -4.9279   3.1587  11.2320  13.9818
    14.8884  18.5154  20.0857

          k = 0.8000-0.2000 0.8000 (  1934 PWs)   bands (ev):

    -5.3373  -5.2297  -5.0220  -4.9839  -4.9063   4.2577   9.6959  12.3336
    14.9332  18.5288  22.3551

          k = 0.7000-0.1000 0.7000 (  1930 PWs)   bands (ev):

    -5.3067  -5.1553  -5.0400  -5.0350  -4.9367   4.8005   9.2001  11.1441
    15.4435  18.8221  25.1684

          k = 0.6000-0.0000 0.6000 (  1933 PWs)   bands (ev):

    -5.2698  -5.1148  -5.0637  -5.0575  -4.9949   4.1351  10.0191  10.9899
    16.3620  19.4244  26.6875

          k = 0.0000 0.8000 0.0000 (  1944 PWs)   bands (ev):

    -5.4008  -5.2935  -4.9454  -4.9165  -4.9165   3.9453  10.0972  14.3293
    14.3293  17.7095  18.8190

          k = 0.9000-0.1000 0.9000 (  1940 PWs)   bands (ev):

    -5.3926  -5.2980  -4.9516  -4.9109  -4.8934   4.8436   9.0625  12.9977
    14.2355  17.9520  19.7065

          k = 0.8000 0.0000 0.8000 (  1930 PWs)   bands (ev):

    -5.3521  -5.2466  -4.9778  -4.9599  -4.9117   5.2150   9.0988  11.2230
    14.6226  18.2857  22.1573

          k = 0.0000-1.0000 0.0000 (  1964 PWs)   bands (ev):

    -5.4187  -5.3211  -4.9321  -4.8810  -4.8810   5.2169   8.4290  13.9924
    13.9924  17.3859  18.6631

          k =-0.2000 0.4000 0.0000 (  1951 PWs)   bands (ev):

    -5.2679  -5.1674  -5.1192  -5.1147  -5.0054   1.1597  14.0079  15.6000
    18.2442  21.6079  21.6806

          k =-0.3000 0.5000-0.1000 (  1943 PWs)   bands (ev):

    -5.2576  -5.1901  -5.1263  -5.0590  -4.9660   2.1351  11.5580  14.6504
    17.3248  21.0620  23.0706

          k = 0.6000-0.4000 0.8000 (  1935 PWs)   bands (ev):

    -5.2445  -5.2134  -5.1324  -5.0121  -4.9368   3.3456   9.2211  14.3903
    16.4221  20.7611  23.1838

          k = 0.5000-0.3000 0.7000 (  1936 PWs)   bands (ev):

    -5.2322  -5.2311  -5.1331  -4.9934  -4.9268   4.1011   8.0749  14.3631
    16.0461  20.6690  22.9933

          k =-0.2000 0.6000 0.0000 (  1950 PWs)   bands (ev):

    -5.3168  -5.2092  -5.0740  -5.0101  -4.9554   2.4636  12.0988  14.1738
    15.5695  20.0780  20.7818

          k = 0.7000-0.3000 0.9000 (  1936 PWs)   bands (ev):

    -5.2937  -5.2123  -5.0835  -4.9917  -4.9302   3.5748  10.2917  13.1013
    14.7338  20.1893  22.6696

          k = 0.6000-0.2000 0.8000 (  1940 PWs)   bands (ev):

    -5.2705  -5.1825  -5.0809  -5.0308  -4.9212   4.5157   8.9467  12.3635
    14.6247  20.3857  24.4142

          k = 0.5000-0.1000 0.7000 (  1939 PWs)   bands (ev):

    -5.2460  -5.1787  -5.0844  -5.0365  -4.9511   4.2458   9.3764  11.9494
    15.1900  20.8524  24.0746

          k = 0.4000 0.0000 0.6000 (  1936 PWs)   bands (ev):

    -5.2189  -5.2166  -5.1086  -5.0139  -4.9811   3.1592  10.8138  12.4332
    16.1984  21.4413  23.6077

          k = 0.8000-0.2000 1.0000 (  1945 PWs)   bands (ev):

    -5.3570  -5.2681  -5.0027  -4.9300  -4.9173   4.1205  10.0880  13.2541
    13.6977  19.2556  20.2464

          k = 0.7000-0.1000 0.9000 (  1932 PWs)   bands (ev):

    -5.3189  -5.2393  -5.0237  -4.9760  -4.8980   4.9841   9.4294  11.5763
    13.5939  19.7736  22.3168

          k = 0.6000 0.0000 0.8000 (  1937 PWs)   bands (ev):

    -5.2826  -5.1559  -5.0831  -5.0226  -4.9208   5.0014  10.0561  10.1890
    14.1764  20.2398  25.1974

          k =-0.2000-1.0000 0.0000 (  1948 PWs)   bands (ev):

    -5.3723  -5.2925  -4.9563  -4.9380  -4.8809   5.2553   8.7660  12.9364
    13.1172  18.9972  20.0669

          k = 0.6000-0.2000 1.0000 (  1928 PWs)   bands (ev):

    -5.2380  -5.2259  -5.0999  -4.9921  -4.9192   4.5582   9.9971  11.5216
    13.4741  21.9518  23.0529

          k = 0.5000-0.1000 0.9000 (  1932 PWs)   bands (ev):

    -5.2325  -5.1762  -5.1306  -5.0236  -4.8990   5.0782   9.7484  10.9905
    12.9709  22.2635  23.9745

          k =-0.4000-1.0000 0.0000 (  1930 PWs)   bands (ev):

    -5.2465  -5.2338  -5.0811  -5.0080  -4.8808   5.3211   9.7330  11.2072
    12.2312  22.0182  22.8568

     the Fermi energy is    11.9172 ev

!    total energy              =    -135.43523715 Ry
     Harris-Foulkes estimate   =    -135.43523715 Ry
     estimated scf accuracy    <          6.5E-10 Ry

     The total energy is the sum of the following terms:

     one-electron contribution =     -31.47565249 Ry
     hartree contribution      =      26.10343351 Ry
     xc contribution           =     -32.62505258 Ry
     ewald contribution        =     -97.43857717 Ry
     smearing contrib. (-TS)   =       0.00061157 Ry

     convergence has been achieved in   6 iterations

     Writing output data file Pb.save/

     init_run     :      1.78s CPU      1.85s WALL (       1 calls)
     electrons    :     19.78s CPU     20.33s WALL (       1 calls)

     Called by init_run:
     wfcinit      :      0.81s CPU      0.82s WALL (       1 calls)
     potinit      :      0.08s CPU      0.08s WALL (       1 calls)
     hinit0       :      0.79s CPU      0.79s WALL (       1 calls)

     Called by electrons:
     c_bands      :     15.56s CPU     15.62s WALL (       7 calls)
     sum_band     :      3.29s CPU      3.56s WALL (       7 calls)
     v_of_rho     :      0.39s CPU      0.41s WALL (       7 calls)
     newd         :      0.59s CPU      0.86s WALL (       7 calls)
     mix_rho      :      0.03s CPU      0.03s WALL (       7 calls)

     Called by c_bands:
     init_us_2    :      0.35s CPU      0.36s WALL (     705 calls)
     cegterg      :     14.76s CPU     14.81s WALL (     329 calls)

     Called by sum_band:
     sum_band:bec :      0.00s CPU      0.00s WALL (     329 calls)
     addusdens    :      0.73s CPU      0.98s WALL (       7 calls)

     Called by *egterg:
     h_psi        :     11.92s CPU     11.98s WALL (    1243 calls)
     s_psi        :      0.60s CPU      0.60s WALL (    1243 calls)
     g_psi        :      0.08s CPU      0.08s WALL (     867 calls)
     cdiaghg      :      0.26s CPU      0.26s WALL (    1149 calls)

     Called by h_psi:
     h_psi:pot    :     11.89s CPU     11.94s WALL (    1243 calls)
     h_psi:calbec :      0.65s CPU      0.65s WALL (    1243 calls)
     vloc_psi     :     10.62s CPU     10.67s WALL (    1243 calls)
     add_vuspsi   :      0.61s CPU      0.61s WALL (    1243 calls)

     General routines
     calbec       :      0.88s CPU      0.88s WALL (    1572 calls)
     fft          :      0.19s CPU      0.19s WALL (      90 calls)
     ffts         :      0.02s CPU      0.02s WALL (      14 calls)
     fftw         :     11.10s CPU     11.16s WALL (   23423 calls)
     interpolate  :      0.03s CPU      0.03s WALL (       7 calls)

     Parallel routines

     PWSCF        :     22.35s CPU     23.00s WALL


   This run was terminated on:  19:57:48  30Jun2021            

=------------------------------------------------------------------------------=
   JOB DONE.
=------------------------------------------------------------------------------=
