
     Program PWSCF v.6.4.1 starts on 30Jun2021 at 19:56:59 

     This program is part of the open-source Quantum ESPRESSO suite
     for quantum simulation of materials; please cite
         "P. Giannozzi et al., J. Phys.:Condens. Matter 21 395502 (2009);
         "P. Giannozzi et al., J. Phys.:Condens. Matter 29 465901 (2017);
          URL http://www.quantum-espresso.org", 
     in publications or presentations arising from this work. More details at
     http://www.quantum-espresso.org/quote

     Parallel version (MPI), running on     1 processors

     MPI processes distributed on     1 nodes
     Waiting for input...
     Reading input from standard input

     Current dimensions of program PWSCF are:
     Max number of different atomic species (ntypx) = 10
     Max number of k-points (npk) =  40000
     Max angular momentum in pseudopotentials (lmaxx) =  3
               file Pb.pbe-dn-rrkjus_psl.1.0.0.UPF: wavefunction(s)  6S 5D renormalized

     Subspace diagonalization in iterative solution of the eigenvalue problem:
     a serial algorithm will be used


     G-vector sticks info
     --------------------
     sticks:   dense  smooth     PW     G-vecs:    dense   smooth      PW
     Sum        1639     823    253                43895    15593    2685


     Title: 
     Lead                                                                       


     bravais-lattice index     =            2
     lattice parameter (alat)  =       9.2226  a.u.
     unit-cell volume          =     196.1075 (a.u.)^3
     number of atoms/cell      =            1
     number of atomic types    =            1
     number of electrons       =        14.00
     number of Kohn-Sham states=           11
     kinetic-energy cutoff     =      70.0000  Ry
     charge density cutoff     =     560.0000  Ry
     convergence threshold     =      1.0E-09
     mixing beta               =       0.7000
     number of iterations used =            8  plain     mixing
     Exchange-correlation      = PBE ( 1  4  3  4 0 0)

     celldm(1)=   9.222558  celldm(2)=   0.000000  celldm(3)=   0.000000
     celldm(4)=   0.000000  celldm(5)=   0.000000  celldm(6)=   0.000000

     crystal axes: (cart. coord. in units of alat)
               a(1) = (  -0.500000   0.000000   0.500000 )  
               a(2) = (   0.000000   0.500000   0.500000 )  
               a(3) = (  -0.500000   0.500000   0.000000 )  

     reciprocal axes: (cart. coord. in units 2 pi/alat)
               b(1) = ( -1.000000 -1.000000  1.000000 )  
               b(2) = (  1.000000  1.000000  1.000000 )  
               b(3) = ( -1.000000  1.000000 -1.000000 )  


     PseudoPot. # 1 for Pb read from file:
     /home/elena/qe-6.7/pseudo/Pb.pbe-dn-rrkjus_psl.1.0.0.UPF
     MD5 check sum: 1cf8f5e18580e6a90a35f98a53d336de
     Pseudo is Ultrasoft + core correction, Zval = 14.0
     Generated using "atomic" code by A. Dal Corso v.6.3
     Using radial grid of 1281 points,  6 beta functions with: 
                l(1) =   0
                l(2) =   0
                l(3) =   1
                l(4) =   1
                l(5) =   2
                l(6) =   2
     Q(r) pseudized with 0 coefficients 


     atomic species   valence    mass     pseudopotential
        Pb            14.00   207.20000     Pb( 1.00)

     48 Sym. Ops., with inversion, found



   Cartesian axes

     site n.     atom                  positions (alat units)
         1           Pb  tau(   1) = (   0.0000000   0.0000000   0.0000000  )

     number of k points=    47  Methfessel-Paxton smearing, width (Ry)=  0.0900
                       cart. coord. in units 2pi/alat
        k(    1) = (   0.0000000   0.0000000   0.0000000), wk =   0.0020000
        k(    2) = (  -0.1000000   0.1000000  -0.1000000), wk =   0.0160000
        k(    3) = (  -0.2000000   0.2000000  -0.2000000), wk =   0.0160000
        k(    4) = (  -0.3000000   0.3000000  -0.3000000), wk =   0.0160000
        k(    5) = (  -0.4000000   0.4000000  -0.4000000), wk =   0.0160000
        k(    6) = (   0.5000000  -0.5000000   0.5000000), wk =   0.0080000
        k(    7) = (   0.0000000   0.2000000   0.0000000), wk =   0.0120000
        k(    8) = (  -0.1000000   0.3000000  -0.1000000), wk =   0.0480000
        k(    9) = (  -0.2000000   0.4000000  -0.2000000), wk =   0.0480000
        k(   10) = (  -0.3000000   0.5000000  -0.3000000), wk =   0.0480000
        k(   11) = (   0.6000000  -0.4000000   0.6000000), wk =   0.0480000
        k(   12) = (   0.5000000  -0.3000000   0.5000000), wk =   0.0480000
        k(   13) = (   0.4000000  -0.2000000   0.4000000), wk =   0.0480000
        k(   14) = (   0.3000000  -0.1000000   0.3000000), wk =   0.0480000
        k(   15) = (   0.2000000   0.0000000   0.2000000), wk =   0.0240000
        k(   16) = (   0.0000000   0.4000000   0.0000000), wk =   0.0120000
        k(   17) = (  -0.1000000   0.5000000  -0.1000000), wk =   0.0480000
        k(   18) = (  -0.2000000   0.6000000  -0.2000000), wk =   0.0480000
        k(   19) = (   0.7000000  -0.3000000   0.7000000), wk =   0.0480000
        k(   20) = (   0.6000000  -0.2000000   0.6000000), wk =   0.0480000
        k(   21) = (   0.5000000  -0.1000000   0.5000000), wk =   0.0480000
        k(   22) = (   0.4000000   0.0000000   0.4000000), wk =   0.0240000
        k(   23) = (   0.0000000   0.6000000   0.0000000), wk =   0.0120000
        k(   24) = (  -0.1000000   0.7000000  -0.1000000), wk =   0.0480000
        k(   25) = (   0.8000000  -0.2000000   0.8000000), wk =   0.0480000
        k(   26) = (   0.7000000  -0.1000000   0.7000000), wk =   0.0480000
        k(   27) = (   0.6000000  -0.0000000   0.6000000), wk =   0.0240000
        k(   28) = (   0.0000000   0.8000000   0.0000000), wk =   0.0120000
        k(   29) = (   0.9000000  -0.1000000   0.9000000), wk =   0.0480000
        k(   30) = (   0.8000000   0.0000000   0.8000000), wk =   0.0240000
        k(   31) = (   0.0000000  -1.0000000   0.0000000), wk =   0.0060000
        k(   32) = (  -0.2000000   0.4000000   0.0000000), wk =   0.0480000
        k(   33) = (  -0.3000000   0.5000000  -0.1000000), wk =   0.0960000
        k(   34) = (   0.6000000  -0.4000000   0.8000000), wk =   0.0960000
        k(   35) = (   0.5000000  -0.3000000   0.7000000), wk =   0.0480000
        k(   36) = (  -0.2000000   0.6000000   0.0000000), wk =   0.0480000
        k(   37) = (   0.7000000  -0.3000000   0.9000000), wk =   0.0960000
        k(   38) = (   0.6000000  -0.2000000   0.8000000), wk =   0.0960000
        k(   39) = (   0.5000000  -0.1000000   0.7000000), wk =   0.0960000
        k(   40) = (   0.4000000   0.0000000   0.6000000), wk =   0.0480000
        k(   41) = (   0.8000000  -0.2000000   1.0000000), wk =   0.0480000
        k(   42) = (   0.7000000  -0.1000000   0.9000000), wk =   0.0960000
        k(   43) = (   0.6000000   0.0000000   0.8000000), wk =   0.0480000
        k(   44) = (  -0.2000000  -1.0000000   0.0000000), wk =   0.0240000
        k(   45) = (   0.6000000  -0.2000000   1.0000000), wk =   0.0480000
        k(   46) = (   0.5000000  -0.1000000   0.9000000), wk =   0.0480000
        k(   47) = (  -0.4000000  -1.0000000   0.0000000), wk =   0.0240000

     Dense  grid:    43895 G-vectors     FFT dimensions: (  50,  50,  50)

     Smooth grid:    15593 G-vectors     FFT dimensions: (  36,  36,  36)

     Estimated max dynamical RAM per process >     170.82 MB

     Initial potential from superposition of free atoms

     starting charge   13.99765, renormalised to   14.00000
     Starting wfcs are    9 randomized atomic wfcs +    2 random wfcs

     total cpu time spent up to now is        2.6 secs

     Self-consistent Calculation

     iteration #  1     ecut=    70.00 Ry     beta= 0.70
     Davidson diagonalization with overlap
     ethr =  1.00E-02,  avg # of iterations =  4.0

     Threshold (ethr) on eigenvalues was too large:
     Diagonalizing with lowered threshold

     Davidson diagonalization with overlap
     ethr =  1.66E-05,  avg # of iterations =  3.6

     total cpu time spent up to now is        8.8 secs

     total energy              =    -135.43461655 Ry
     Harris-Foulkes estimate   =    -135.43601643 Ry
     estimated scf accuracy    <       0.00233681 Ry

     iteration #  2     ecut=    70.00 Ry     beta= 0.70
     Davidson diagonalization with overlap
     ethr =  1.67E-05,  avg # of iterations =  2.1

     total cpu time spent up to now is       11.9 secs

     total energy              =    -135.43508844 Ry
     Harris-Foulkes estimate   =    -135.43520488 Ry
     estimated scf accuracy    <       0.00020513 Ry

     iteration #  3     ecut=    70.00 Ry     beta= 0.70
     Davidson diagonalization with overlap
     ethr =  1.47E-06,  avg # of iterations =  2.5

     total cpu time spent up to now is       15.3 secs

     total energy              =    -135.43513097 Ry
     Harris-Foulkes estimate   =    -135.43513203 Ry
     estimated scf accuracy    <       0.00000972 Ry

     iteration #  4     ecut=    70.00 Ry     beta= 0.70
     Davidson diagonalization with overlap
     ethr =  6.94E-08,  avg # of iterations =  1.9

     total cpu time spent up to now is       18.1 secs

     total energy              =    -135.43513214 Ry
     Harris-Foulkes estimate   =    -135.43513208 Ry
     estimated scf accuracy    <       0.00000010 Ry

     iteration #  5     ecut=    70.00 Ry     beta= 0.70
     Davidson diagonalization with overlap
     ethr =  6.93E-10,  avg # of iterations =  2.2

     total cpu time spent up to now is       21.6 secs

     total energy              =    -135.43513217 Ry
     Harris-Foulkes estimate   =    -135.43513218 Ry
     estimated scf accuracy    <       0.00000001 Ry

     iteration #  6     ecut=    70.00 Ry     beta= 0.70
     Davidson diagonalization with overlap
     ethr =  9.08E-11,  avg # of iterations =  2.1

     total cpu time spent up to now is       25.2 secs

     End of self-consistent calculation

          k = 0.0000 0.0000 0.0000 (  1917 PWs)   bands (ev):

    -5.2308  -5.2308  -5.2308  -5.0717  -5.0717  -0.1809  19.6445  19.6445
    19.6445  21.9774  23.7522

          k =-0.1000 0.1000-0.1000 (  1940 PWs)   bands (ev):

    -5.2318  -5.2155  -5.2155  -5.0724  -5.0724   0.0204  17.5285  19.3940
    19.3940  21.6089  24.5519

          k =-0.2000 0.2000-0.2000 (  1943 PWs)   bands (ev):

    -5.2377  -5.1921  -5.1921  -5.0561  -5.0561   0.6257  14.2707  18.8422
    18.8422  21.2659  24.4744

          k =-0.3000 0.3000-0.3000 (  1934 PWs)   bands (ev):

    -5.2505  -5.1963  -5.1963  -5.0013  -5.0013   1.6194  11.2237  18.2745
    18.2745  21.1167  23.1783

          k =-0.4000 0.4000-0.4000 (  1937 PWs)   bands (ev):

    -5.2648  -5.2120  -5.2120  -4.9435  -4.9435   2.8808   8.6966  17.8661
    17.8661  21.1876  22.2231

          k = 0.5000-0.5000 0.5000 (  1946 PWs)   bands (ev):

    -5.2712  -5.2193  -5.2193  -4.9200  -4.9200   3.7017   7.4496  17.7181
    17.7181  21.3862  21.7302

          k = 0.0000 0.2000 0.0000 (  1941 PWs)   bands (ev):

    -5.2491  -5.1997  -5.1997  -5.0909  -5.0586   0.0873  18.1905  18.5778
    18.5778  21.1818  24.1173

          k =-0.1000 0.3000-0.1000 (  1945 PWs)   bands (ev):

    -5.2588  -5.1725  -5.1683  -5.1013  -5.0383   0.5579  15.3816  17.7872
    18.3588  21.3289  22.7874

          k =-0.2000 0.4000-0.2000 (  1944 PWs)   bands (ev):

    -5.2599  -5.1808  -5.1624  -5.0643  -4.9890   1.4241  12.3065  17.2246
    17.6690  20.9680  23.2293

          k =-0.3000 0.5000-0.3000 (  1935 PWs)   bands (ev):

    -5.2611  -5.2029  -5.1773  -5.0034  -4.9364   2.6148   9.6180  16.8817
    16.9866  20.4713  23.5233

          k = 0.6000-0.4000 0.6000 (  1942 PWs)   bands (ev):

    -5.2592  -5.2174  -5.1909  -4.9553  -4.9183   3.7234   7.8193  16.2391
    17.1241  20.4100  23.1377

          k = 0.5000-0.3000 0.5000 (  1941 PWs)   bands (ev):

    -5.2503  -5.2177  -5.1919  -4.9484  -4.9419   3.4264   8.2588  15.8934
    17.6400  20.7569  22.7802

          k = 0.4000-0.2000 0.4000 (  1942 PWs)   bands (ev):

    -5.2415  -5.2028  -5.1795  -5.0147  -4.9666   2.1914  10.4601  15.9098
    18.4560  21.4672  22.6354

          k = 0.3000-0.1000 0.3000 (  1940 PWs)   bands (ev):

    -5.2382  -5.1862  -5.1687  -5.0805  -5.0125   1.0932  13.2857  16.3129
    19.3375  22.1929  22.9657

          k = 0.2000 0.0000 0.2000 (  1945 PWs)   bands (ev):

    -5.2375  -5.1950  -5.1907  -5.0896  -5.0513   0.3565  16.1003  17.3470
    19.7794  22.0146  24.1661

          k = 0.0000 0.4000 0.0000 (  1956 PWs)   bands (ev):

    -5.2964  -5.1468  -5.1158  -5.1158  -5.0240   0.8927  15.7304  16.8082
    16.8082  20.0956  20.9434

          k =-0.1000 0.5000-0.1000 (  1946 PWs)   bands (ev):

    -5.3099  -5.1804  -5.0887  -5.0671  -4.9833   1.6240  13.3682  16.0586
    16.1258  19.7825  20.8990

          k =-0.2000 0.6000-0.2000 (  1936 PWs)   bands (ev):

    -5.3009  -5.1933  -5.0989  -5.0365  -4.9305   2.7007  10.7855  14.9357
    15.8343  19.3402  22.9070

          k = 0.7000-0.3000 0.7000 (  1940 PWs)   bands (ev):

    -5.2857  -5.1807  -5.1158  -5.0204  -4.9138   3.8720   8.7760  13.9407
    15.9800  19.3124  25.2143

          k = 0.6000-0.2000 0.6000 (  1941 PWs)   bands (ev):

    -5.2639  -5.1719  -5.1255  -5.0045  -4.9474   4.1197   8.4399  13.2959
    16.5643  19.6515  24.9223

          k = 0.5000-0.1000 0.5000 (  1940 PWs)   bands (ev):

    -5.2333  -5.1879  -5.1219  -5.0200  -4.9880   3.0841  10.1045  13.1268
    17.5238  20.3481  24.5094

          k = 0.4000 0.0000 0.4000 (  1947 PWs)   bands (ev):

    -5.2176  -5.2025  -5.1057  -5.1035  -4.9873   1.9414  12.1718  13.8529
    18.6541  21.4042  23.8189

          k = 0.0000 0.6000 0.0000 (  1960 PWs)   bands (ev):

    -5.3545  -5.2249  -5.0078  -5.0078  -4.9809   2.2167  12.9165  15.3047
    15.3047  18.7941  19.2930

          k =-0.1000 0.7000-0.1000 (  1945 PWs)   bands (ev):

    -5.3613  -5.2504  -5.0051  -4.9734  -4.9282   3.1586  11.2319  13.9818
    14.8883  18.5153  20.0856

          k = 0.8000-0.2000 0.8000 (  1934 PWs)   bands (ev):

    -5.3376  -5.2300  -5.0223  -4.9842  -4.9066   4.2576   9.6958  12.3335
    14.9331  18.5287  22.3550

          k = 0.7000-0.1000 0.7000 (  1930 PWs)   bands (ev):

    -5.3070  -5.1556  -5.0403  -5.0353  -4.9370   4.8004   9.2000  11.1441
    15.4435  18.8219  25.1683

          k = 0.6000-0.0000 0.6000 (  1933 PWs)   bands (ev):

    -5.2701  -5.1151  -5.0640  -5.0578  -4.9952   4.1350  10.0190  10.9898
    16.3620  19.4242  26.6874

          k = 0.0000 0.8000 0.0000 (  1944 PWs)   bands (ev):

    -5.4011  -5.2939  -4.9458  -4.9168  -4.9168   3.9452  10.0971  14.3293
    14.3293  17.7094  18.8189

          k = 0.9000-0.1000 0.9000 (  1940 PWs)   bands (ev):

    -5.3929  -5.2983  -4.9519  -4.9112  -4.8937   4.8435   9.0624  12.9976
    14.2355  17.9519  19.7064

          k = 0.8000 0.0000 0.8000 (  1930 PWs)   bands (ev):

    -5.3524  -5.2469  -4.9781  -4.9602  -4.9120   5.2149   9.0987  11.2230
    14.6226  18.2856  22.1572

          k = 0.0000-1.0000 0.0000 (  1964 PWs)   bands (ev):

    -5.4190  -5.3214  -4.9324  -4.8813  -4.8813   5.2168   8.4290  13.9924
    13.9924  17.3858  18.6630

          k =-0.2000 0.4000 0.0000 (  1951 PWs)   bands (ev):

    -5.2682  -5.1677  -5.1195  -5.1150  -5.0057   1.1596  14.0078  15.5999
    18.2442  21.6078  21.6805

          k =-0.3000 0.5000-0.1000 (  1943 PWs)   bands (ev):

    -5.2579  -5.1904  -5.1267  -5.0593  -4.9663   2.1350  11.5579  14.6503
    17.3247  21.0619  23.0705

          k = 0.6000-0.4000 0.8000 (  1935 PWs)   bands (ev):

    -5.2448  -5.2137  -5.1328  -5.0124  -4.9371   3.3455   9.2211  14.3903
    16.4220  20.7610  23.1837

          k = 0.5000-0.3000 0.7000 (  1936 PWs)   bands (ev):

    -5.2326  -5.2314  -5.1334  -4.9937  -4.9271   4.1010   8.0748  14.3630
    16.0460  20.6689  22.9931

          k =-0.2000 0.6000 0.0000 (  1950 PWs)   bands (ev):

    -5.3171  -5.2095  -5.0743  -5.0104  -4.9557   2.4635  12.0987  14.1737
    15.5695  20.0779  20.7817

          k = 0.7000-0.3000 0.9000 (  1936 PWs)   bands (ev):

    -5.2940  -5.2126  -5.0839  -4.9920  -4.9305   3.5746  10.2916  13.1012
    14.7338  20.1892  22.6695

          k = 0.6000-0.2000 0.8000 (  1940 PWs)   bands (ev):

    -5.2708  -5.1829  -5.0812  -5.0312  -4.9215   4.5156   8.9466  12.3634
    14.6247  20.3856  24.4141

          k = 0.5000-0.1000 0.7000 (  1939 PWs)   bands (ev):

    -5.2463  -5.1790  -5.0847  -5.0368  -4.9514   4.2457   9.3763  11.9493
    15.1899  20.8523  24.0745

          k = 0.4000 0.0000 0.6000 (  1936 PWs)   bands (ev):

    -5.2192  -5.2169  -5.1089  -5.0142  -4.9814   3.1591  10.8137  12.4331
    16.1983  21.4412  23.6076

          k = 0.8000-0.2000 1.0000 (  1945 PWs)   bands (ev):

    -5.3573  -5.2684  -5.0030  -4.9304  -4.9176   4.1204  10.0879  13.2540
    13.6976  19.2555  20.2463

          k = 0.7000-0.1000 0.9000 (  1932 PWs)   bands (ev):

    -5.3192  -5.2396  -5.0240  -4.9763  -4.8983   4.9840   9.4294  11.5762
    13.5939  19.7735  22.3167

          k = 0.6000 0.0000 0.8000 (  1937 PWs)   bands (ev):

    -5.2829  -5.1562  -5.0834  -5.0230  -4.9211   5.0013  10.0560  10.1890
    14.1763  20.2397  25.1973

          k =-0.2000-1.0000 0.0000 (  1948 PWs)   bands (ev):

    -5.3726  -5.2928  -4.9566  -4.9383  -4.8812   5.2551   8.7659  12.9363
    13.1172  18.9971  20.0667

          k = 0.6000-0.2000 1.0000 (  1928 PWs)   bands (ev):

    -5.2383  -5.2262  -5.1002  -4.9924  -4.9195   4.5581   9.9970  11.5215
    13.4740  21.9517  23.0528

          k = 0.5000-0.1000 0.9000 (  1932 PWs)   bands (ev):

    -5.2328  -5.1765  -5.1309  -5.0239  -4.8993   5.0781   9.7483  10.9904
    12.9708  22.2634  23.9744

          k =-0.4000-1.0000 0.0000 (  1930 PWs)   bands (ev):

    -5.2468  -5.2341  -5.0814  -5.0083  -4.8811   5.3210   9.7329  11.2071
    12.2311  22.0181  22.8567

     the Fermi energy is    11.9188 ev

!    total energy              =    -135.43513218 Ry
     Harris-Foulkes estimate   =    -135.43513218 Ry
     estimated scf accuracy    <          6.5E-10 Ry

     The total energy is the sum of the following terms:

     one-electron contribution =     -31.47591052 Ry
     hartree contribution      =      26.10316652 Ry
     xc contribution           =     -32.62501669 Ry
     ewald contribution        =     -97.43857717 Ry
     smearing contrib. (-TS)   =       0.00120568 Ry

     convergence has been achieved in   6 iterations

     Writing output data file Pb.save/

     init_run     :      1.77s CPU      1.85s WALL (       1 calls)
     electrons    :     21.75s CPU     22.52s WALL (       1 calls)

     Called by init_run:
     wfcinit      :      0.82s CPU      0.82s WALL (       1 calls)
     potinit      :      0.08s CPU      0.08s WALL (       1 calls)
     hinit0       :      0.77s CPU      0.78s WALL (       1 calls)

     Called by electrons:
     c_bands      :     17.24s CPU     17.42s WALL (       7 calls)
     sum_band     :      3.49s CPU      3.84s WALL (       7 calls)
     v_of_rho     :      0.42s CPU      0.43s WALL (       7 calls)
     newd         :      0.65s CPU      0.93s WALL (       7 calls)
     mix_rho      :      0.04s CPU      0.04s WALL (       7 calls)

     Called by c_bands:
     init_us_2    :      0.38s CPU      0.38s WALL (     705 calls)
     cegterg      :     16.37s CPU     16.53s WALL (     329 calls)

     Called by sum_band:
     sum_band:bec :      0.00s CPU      0.00s WALL (     329 calls)
     addusdens    :      0.68s CPU      1.01s WALL (       7 calls)

     Called by *egterg:
     h_psi        :     13.21s CPU     13.34s WALL (    1243 calls)
     s_psi        :      0.65s CPU      0.65s WALL (    1243 calls)
     g_psi        :      0.08s CPU      0.09s WALL (     867 calls)
     cdiaghg      :      0.28s CPU      0.28s WALL (    1149 calls)

     Called by h_psi:
     h_psi:pot    :     13.16s CPU     13.29s WALL (    1243 calls)
     h_psi:calbec :      0.72s CPU      0.73s WALL (    1243 calls)
     vloc_psi     :     11.78s CPU     11.89s WALL (    1243 calls)
     add_vuspsi   :      0.66s CPU      0.67s WALL (    1243 calls)

     General routines
     calbec       :      0.97s CPU      0.98s WALL (    1572 calls)
     fft          :      0.20s CPU      0.20s WALL (      90 calls)
     ffts         :      0.02s CPU      0.02s WALL (      14 calls)
     fftw         :     12.17s CPU     12.29s WALL (   23423 calls)
     interpolate  :      0.03s CPU      0.03s WALL (       7 calls)

     Parallel routines

     PWSCF        :     24.33s CPU     25.20s WALL


   This run was terminated on:  19:57:24  30Jun2021            

=------------------------------------------------------------------------------=
   JOB DONE.
=------------------------------------------------------------------------------=
