
     Program PWSCF v.6.4.1 starts on 30Jun2021 at 20: 7:29 

     This program is part of the open-source Quantum ESPRESSO suite
     for quantum simulation of materials; please cite
         "P. Giannozzi et al., J. Phys.:Condens. Matter 21 395502 (2009);
         "P. Giannozzi et al., J. Phys.:Condens. Matter 29 465901 (2017);
          URL http://www.quantum-espresso.org", 
     in publications or presentations arising from this work. More details at
     http://www.quantum-espresso.org/quote

     Parallel version (MPI), running on     1 processors

     MPI processes distributed on     1 nodes
     Waiting for input...
     Reading input from standard input

     Current dimensions of program PWSCF are:
     Max number of different atomic species (ntypx) = 10
     Max number of k-points (npk) =  40000
     Max angular momentum in pseudopotentials (lmaxx) =  3
               file Pb.pbe-dn-rrkjus_psl.1.0.0.UPF: wavefunction(s)  6S 5D renormalized

     Subspace diagonalization in iterative solution of the eigenvalue problem:
     a serial algorithm will be used


     G-vector sticks info
     --------------------
     sticks:   dense  smooth     PW     G-vecs:    dense   smooth      PW
     Sum        1639     823    253                43895    15593    2685


     Title: 
     Lead                                                                       


     bravais-lattice index     =            2
     lattice parameter (alat)  =       9.2226  a.u.
     unit-cell volume          =     196.1075 (a.u.)^3
     number of atoms/cell      =            1
     number of atomic types    =            1
     number of electrons       =        14.00
     number of Kohn-Sham states=           11
     kinetic-energy cutoff     =      70.0000  Ry
     charge density cutoff     =     560.0000  Ry
     convergence threshold     =      1.0E-09
     mixing beta               =       0.7000
     number of iterations used =            8  plain     mixing
     Exchange-correlation      = PBE ( 1  4  3  4 0 0)

     celldm(1)=   9.222558  celldm(2)=   0.000000  celldm(3)=   0.000000
     celldm(4)=   0.000000  celldm(5)=   0.000000  celldm(6)=   0.000000

     crystal axes: (cart. coord. in units of alat)
               a(1) = (  -0.500000   0.000000   0.500000 )  
               a(2) = (   0.000000   0.500000   0.500000 )  
               a(3) = (  -0.500000   0.500000   0.000000 )  

     reciprocal axes: (cart. coord. in units 2 pi/alat)
               b(1) = ( -1.000000 -1.000000  1.000000 )  
               b(2) = (  1.000000  1.000000  1.000000 )  
               b(3) = ( -1.000000  1.000000 -1.000000 )  


     PseudoPot. # 1 for Pb read from file:
     /home/elena/qe-6.7/pseudo/Pb.pbe-dn-rrkjus_psl.1.0.0.UPF
     MD5 check sum: 1cf8f5e18580e6a90a35f98a53d336de
     Pseudo is Ultrasoft + core correction, Zval = 14.0
     Generated using "atomic" code by A. Dal Corso v.6.3
     Using radial grid of 1281 points,  6 beta functions with: 
                l(1) =   0
                l(2) =   0
                l(3) =   1
                l(4) =   1
                l(5) =   2
                l(6) =   2
     Q(r) pseudized with 0 coefficients 


     atomic species   valence    mass     pseudopotential
        Pb            14.00   207.20000     Pb( 1.00)

     48 Sym. Ops., with inversion, found



   Cartesian axes

     site n.     atom                  positions (alat units)
         1           Pb  tau(   1) = (   0.0000000   0.0000000   0.0000000  )

     number of k points=   104  Methfessel-Paxton smearing, width (Ry)=  0.0900

     Number of k-points >= 100: set verbosity='high' to print them.

     Dense  grid:    43895 G-vectors     FFT dimensions: (  50,  50,  50)

     Smooth grid:    15593 G-vectors     FFT dimensions: (  36,  36,  36)

     Estimated max dynamical RAM per process >     189.38 MB

     Initial potential from superposition of free atoms

     starting charge   13.99765, renormalised to   14.00000
     Starting wfcs are    9 randomized atomic wfcs +    2 random wfcs

     total cpu time spent up to now is        3.7 secs

     Self-consistent Calculation

     iteration #  1     ecut=    70.00 Ry     beta= 0.70
     Davidson diagonalization with overlap
     ethr =  1.00E-02,  avg # of iterations =  4.1

     Threshold (ethr) on eigenvalues was too large:
     Diagonalizing with lowered threshold

     Davidson diagonalization with overlap
     ethr =  1.66E-05,  avg # of iterations =  3.8

     total cpu time spent up to now is       16.9 secs

     total energy              =    -135.43460186 Ry
     Harris-Foulkes estimate   =    -135.43600058 Ry
     estimated scf accuracy    <       0.00233570 Ry

     iteration #  2     ecut=    70.00 Ry     beta= 0.70
     Davidson diagonalization with overlap
     ethr =  1.67E-05,  avg # of iterations =  2.1

     total cpu time spent up to now is       22.9 secs

     total energy              =    -135.43507421 Ry
     Harris-Foulkes estimate   =    -135.43519099 Ry
     estimated scf accuracy    <       0.00020566 Ry

     iteration #  3     ecut=    70.00 Ry     beta= 0.70
     Davidson diagonalization with overlap
     ethr =  1.47E-06,  avg # of iterations =  2.3

     total cpu time spent up to now is       28.7 secs

     total energy              =    -135.43511682 Ry
     Harris-Foulkes estimate   =    -135.43511787 Ry
     estimated scf accuracy    <       0.00000973 Ry

     iteration #  4     ecut=    70.00 Ry     beta= 0.70
     Davidson diagonalization with overlap
     ethr =  6.95E-08,  avg # of iterations =  1.9

     total cpu time spent up to now is       33.8 secs

     total energy              =    -135.43511800 Ry
     Harris-Foulkes estimate   =    -135.43511793 Ry
     estimated scf accuracy    <       0.00000010 Ry

     iteration #  5     ecut=    70.00 Ry     beta= 0.70
     Davidson diagonalization with overlap
     ethr =  7.08E-10,  avg # of iterations =  2.2

     total cpu time spent up to now is       39.9 secs

     total energy              =    -135.43511802 Ry
     Harris-Foulkes estimate   =    -135.43511803 Ry
     estimated scf accuracy    <       0.00000001 Ry

     iteration #  6     ecut=    70.00 Ry     beta= 0.70
     Davidson diagonalization with overlap
     ethr =  9.27E-11,  avg # of iterations =  2.0

     total cpu time spent up to now is       45.9 secs

     End of self-consistent calculation

     Number of k-points >= 100: set verbosity='high' to print the bands.

     the Fermi energy is    11.9254 ev

!    total energy              =    -135.43511803 Ry
     Harris-Foulkes estimate   =    -135.43511803 Ry
     estimated scf accuracy    <          6.3E-10 Ry

     The total energy is the sum of the following terms:

     one-electron contribution =     -31.47622155 Ry
     hartree contribution      =      26.10346108 Ry
     xc contribution           =     -32.62504529 Ry
     ewald contribution        =     -97.43857717 Ry
     smearing contrib. (-TS)   =       0.00126491 Ry

     convergence has been achieved in   6 iterations

     Writing output data file Pb.save/

     init_run     :      2.86s CPU      2.91s WALL (       1 calls)
     electrons    :     41.54s CPU     42.19s WALL (       1 calls)

     Called by init_run:
     wfcinit      :      1.83s CPU      1.84s WALL (       1 calls)
     potinit      :      0.07s CPU      0.08s WALL (       1 calls)
     hinit0       :      0.81s CPU      0.81s WALL (       1 calls)

     Called by electrons:
     c_bands      :     34.45s CPU     34.58s WALL (       7 calls)
     sum_band     :      6.17s CPU      6.45s WALL (       7 calls)
     v_of_rho     :      0.40s CPU      0.42s WALL (       7 calls)
     newd         :      0.63s CPU      0.86s WALL (       7 calls)
     mix_rho      :      0.04s CPU      0.04s WALL (       7 calls)

     Called by c_bands:
     init_us_2    :      0.78s CPU      0.78s WALL (    1560 calls)
     cegterg      :     32.68s CPU     32.80s WALL (     728 calls)

     Called by sum_band:
     sum_band:bec :      0.01s CPU      0.01s WALL (     728 calls)
     addusdens    :      0.69s CPU      0.97s WALL (       7 calls)

     Called by *egterg:
     h_psi        :     26.46s CPU     26.56s WALL (    2739 calls)
     s_psi        :      1.32s CPU      1.32s WALL (    2739 calls)
     g_psi        :      0.18s CPU      0.18s WALL (    1907 calls)
     cdiaghg      :      0.57s CPU      0.57s WALL (    2531 calls)

     Called by h_psi:
     h_psi:pot    :     26.38s CPU     26.48s WALL (    2739 calls)
     h_psi:calbec :      1.45s CPU      1.45s WALL (    2739 calls)
     vloc_psi     :     23.57s CPU     23.66s WALL (    2739 calls)
     add_vuspsi   :      1.34s CPU      1.35s WALL (    2739 calls)

     General routines
     calbec       :      1.93s CPU      1.94s WALL (    3467 calls)
     fft          :      0.19s CPU      0.19s WALL (      90 calls)
     ffts         :      0.02s CPU      0.02s WALL (      14 calls)
     fftw         :     24.55s CPU     24.64s WALL (   51886 calls)
     interpolate  :      0.03s CPU      0.03s WALL (       7 calls)

     Parallel routines

     PWSCF        :     45.20s CPU     45.94s WALL


   This run was terminated on:  20: 8:15  30Jun2021            

=------------------------------------------------------------------------------=
   JOB DONE.
=------------------------------------------------------------------------------=
