
     Program PWSCF v.6.4.1 starts on 30Jun2021 at 19:50:18 

     This program is part of the open-source Quantum ESPRESSO suite
     for quantum simulation of materials; please cite
         "P. Giannozzi et al., J. Phys.:Condens. Matter 21 395502 (2009);
         "P. Giannozzi et al., J. Phys.:Condens. Matter 29 465901 (2017);
          URL http://www.quantum-espresso.org", 
     in publications or presentations arising from this work. More details at
     http://www.quantum-espresso.org/quote

     Parallel version (MPI), running on     1 processors

     MPI processes distributed on     1 nodes
     Waiting for input...
     Reading input from standard input

     Current dimensions of program PWSCF are:
     Max number of different atomic species (ntypx) = 10
     Max number of k-points (npk) =  40000
     Max angular momentum in pseudopotentials (lmaxx) =  3
               file Pb.pbe-dn-rrkjus_psl.1.0.0.UPF: wavefunction(s)  6S 5D renormalized

     Subspace diagonalization in iterative solution of the eigenvalue problem:
     a serial algorithm will be used


     G-vector sticks info
     --------------------
     sticks:   dense  smooth     PW     G-vecs:    dense   smooth      PW
     Sum        1639     823    241                43895    15593    2445


     Title: 
     Lead                                                                       


     bravais-lattice index     =            2
     lattice parameter (alat)  =       9.2226  a.u.
     unit-cell volume          =     196.1075 (a.u.)^3
     number of atoms/cell      =            1
     number of atomic types    =            1
     number of electrons       =        14.00
     number of Kohn-Sham states=           11
     kinetic-energy cutoff     =      70.0000  Ry
     charge density cutoff     =     560.0000  Ry
     convergence threshold     =      1.0E-09
     mixing beta               =       0.7000
     number of iterations used =            8  plain     mixing
     Exchange-correlation      = PBE ( 1  4  3  4 0 0)

     celldm(1)=   9.222558  celldm(2)=   0.000000  celldm(3)=   0.000000
     celldm(4)=   0.000000  celldm(5)=   0.000000  celldm(6)=   0.000000

     crystal axes: (cart. coord. in units of alat)
               a(1) = (  -0.500000   0.000000   0.500000 )  
               a(2) = (   0.000000   0.500000   0.500000 )  
               a(3) = (  -0.500000   0.500000   0.000000 )  

     reciprocal axes: (cart. coord. in units 2 pi/alat)
               b(1) = ( -1.000000 -1.000000  1.000000 )  
               b(2) = (  1.000000  1.000000  1.000000 )  
               b(3) = ( -1.000000  1.000000 -1.000000 )  


     PseudoPot. # 1 for Pb read from file:
     /home/elena/qe-6.7/pseudo/Pb.pbe-dn-rrkjus_psl.1.0.0.UPF
     MD5 check sum: 1cf8f5e18580e6a90a35f98a53d336de
     Pseudo is Ultrasoft + core correction, Zval = 14.0
     Generated using "atomic" code by A. Dal Corso v.6.3
     Using radial grid of 1281 points,  6 beta functions with: 
                l(1) =   0
                l(2) =   0
                l(3) =   1
                l(4) =   1
                l(5) =   2
                l(6) =   2
     Q(r) pseudized with 0 coefficients 


     atomic species   valence    mass     pseudopotential
        Pb            14.00   207.20000     Pb( 1.00)

     48 Sym. Ops., with inversion, found



   Cartesian axes

     site n.     atom                  positions (alat units)
         1           Pb  tau(   1) = (   0.0000000   0.0000000   0.0000000  )

     number of k points=     3  Methfessel-Paxton smearing, width (Ry)=  0.0100
                       cart. coord. in units 2pi/alat
        k(    1) = (   0.0000000   0.0000000   0.0000000), wk =   0.2500000
        k(    2) = (   0.5000000  -0.5000000   0.5000000), wk =   1.0000000
        k(    3) = (   0.0000000  -1.0000000   0.0000000), wk =   0.7500000

     Dense  grid:    43895 G-vectors     FFT dimensions: (  50,  50,  50)

     Smooth grid:    15593 G-vectors     FFT dimensions: (  36,  36,  36)

     Estimated max dynamical RAM per process >     156.49 MB

     Initial potential from superposition of free atoms

     starting charge   13.99765, renormalised to   14.00000
     Starting wfcs are    9 randomized atomic wfcs +    2 random wfcs

     total cpu time spent up to now is        2.1 secs

     Self-consistent Calculation

     iteration #  1     ecut=    70.00 Ry     beta= 0.70
     Davidson diagonalization with overlap
     ethr =  1.00E-02,  avg # of iterations =  3.0

     Threshold (ethr) on eigenvalues was too large:
     Diagonalizing with lowered threshold

     Davidson diagonalization with overlap
     ethr =  2.43E-05,  avg # of iterations =  3.3

     total cpu time spent up to now is        3.0 secs

     total energy              =    -135.56372293 Ry
     Harris-Foulkes estimate   =    -135.56547854 Ry
     estimated scf accuracy    <       0.00307082 Ry

     iteration #  2     ecut=    70.00 Ry     beta= 0.70
     Davidson diagonalization with overlap
     ethr =  2.19E-05,  avg # of iterations =  4.3

     total cpu time spent up to now is        3.8 secs

     total energy              =    -135.56434355 Ry
     Harris-Foulkes estimate   =    -135.56448493 Ry
     estimated scf accuracy    <       0.00027029 Ry

     iteration #  3     ecut=    70.00 Ry     beta= 0.70
     Davidson diagonalization with overlap
     ethr =  1.93E-06,  avg # of iterations =  3.7

     total cpu time spent up to now is        4.5 secs

     total energy              =    -135.56440070 Ry
     Harris-Foulkes estimate   =    -135.56440051 Ry
     estimated scf accuracy    <       0.00001445 Ry

     iteration #  4     ecut=    70.00 Ry     beta= 0.70
     Davidson diagonalization with overlap
     ethr =  1.03E-07,  avg # of iterations =  1.7

     total cpu time spent up to now is        5.0 secs

     total energy              =    -135.56440209 Ry
     Harris-Foulkes estimate   =    -135.56440200 Ry
     estimated scf accuracy    <       0.00000010 Ry

     iteration #  5     ecut=    70.00 Ry     beta= 0.70
     Davidson diagonalization with overlap
     ethr =  6.79E-10,  avg # of iterations =  3.0

     total cpu time spent up to now is        5.7 secs

     total energy              =    -135.56440213 Ry
     Harris-Foulkes estimate   =    -135.56440213 Ry
     estimated scf accuracy    <          8.0E-09 Ry

     iteration #  6     ecut=    70.00 Ry     beta= 0.70
     Davidson diagonalization with overlap
     ethr =  5.69E-11,  avg # of iterations =  2.0

     total cpu time spent up to now is        6.4 secs

     End of self-consistent calculation

          k = 0.0000 0.0000 0.0000 (  1917 PWs)   bands (ev):

    -5.2660  -5.2660  -5.2660  -5.1104  -5.1104  -0.1837  19.6370  19.6371
    19.6371  21.9926  23.7826

          k = 0.5000-0.5000 0.5000 (  1946 PWs)   bands (ev):

    -5.3056  -5.2561  -5.2561  -4.9575  -4.9575   3.6933   7.4528  17.7109
    17.7109  21.4121  21.7310

          k = 0.0000-1.0000 0.0000 (  1964 PWs)   bands (ev):

    -5.4531  -5.3586  -4.9715  -4.9177  -4.9177   5.2077   8.4284  13.9870
    13.9870  17.4055  18.6645

     the Fermi energy is    13.9276 ev

!    total energy              =    -135.56440213 Ry
     Harris-Foulkes estimate   =    -135.56440213 Ry
     estimated scf accuracy    <          2.3E-10 Ry

     The total energy is the sum of the following terms:

     one-electron contribution =     -31.58206858 Ry
     hartree contribution      =      26.07478061 Ry
     xc contribution           =     -32.61745519 Ry
     ewald contribution        =     -97.43857717 Ry
     smearing contrib. (-TS)   =      -0.00108181 Ry

     convergence has been achieved in   6 iterations

     Writing output data file Pb.save/

     init_run     :      1.09s CPU      1.15s WALL (       1 calls)
     electrons    :      3.68s CPU      4.31s WALL (       1 calls)

     Called by init_run:
     wfcinit      :      0.05s CPU      0.05s WALL (       1 calls)
     potinit      :      0.08s CPU      0.09s WALL (       1 calls)
     hinit0       :      0.84s CPU      0.85s WALL (       1 calls)

     Called by electrons:
     c_bands      :      1.30s CPU      1.32s WALL (       7 calls)
     sum_band     :      1.22s CPU      1.56s WALL (       7 calls)
     v_of_rho     :      0.47s CPU      0.49s WALL (       7 calls)
     newd         :      0.74s CPU      1.05s WALL (       7 calls)
     mix_rho      :      0.05s CPU      0.05s WALL (       7 calls)

     Called by c_bands:
     init_us_2    :      0.03s CPU      0.03s WALL (      45 calls)
     cegterg      :      1.24s CPU      1.25s WALL (      21 calls)

     Called by sum_band:
     sum_band:bec :      0.00s CPU      0.00s WALL (      21 calls)
     addusdens    :      0.96s CPU      1.29s WALL (       7 calls)

     Called by *egterg:
     h_psi        :      0.99s CPU      1.00s WALL (      87 calls)
     s_psi        :      0.05s CPU      0.05s WALL (      87 calls)
     g_psi        :      0.01s CPU      0.01s WALL (      63 calls)
     cdiaghg      :      0.02s CPU      0.02s WALL (      81 calls)

     Called by h_psi:
     h_psi:pot    :      0.98s CPU      1.00s WALL (      87 calls)
     h_psi:calbec :      0.06s CPU      0.06s WALL (      87 calls)
     vloc_psi     :      0.88s CPU      0.89s WALL (      87 calls)
     add_vuspsi   :      0.05s CPU      0.05s WALL (      87 calls)

     General routines
     calbec       :      0.07s CPU      0.07s WALL (     108 calls)
     fft          :      0.24s CPU      0.24s WALL (      90 calls)
     ffts         :      0.02s CPU      0.02s WALL (      14 calls)
     fftw         :      0.89s CPU      0.90s WALL (    1515 calls)
     interpolate  :      0.03s CPU      0.03s WALL (       7 calls)

     Parallel routines

     PWSCF        :      5.72s CPU      6.42s WALL


   This run was terminated on:  19:50:25  30Jun2021            

=------------------------------------------------------------------------------=
   JOB DONE.
=------------------------------------------------------------------------------=
