
     Program PWSCF v.6.4.1 starts on 30Jun2021 at 19:51:17 

     This program is part of the open-source Quantum ESPRESSO suite
     for quantum simulation of materials; please cite
         "P. Giannozzi et al., J. Phys.:Condens. Matter 21 395502 (2009);
         "P. Giannozzi et al., J. Phys.:Condens. Matter 29 465901 (2017);
          URL http://www.quantum-espresso.org", 
     in publications or presentations arising from this work. More details at
     http://www.quantum-espresso.org/quote

     Parallel version (MPI), running on     1 processors

     MPI processes distributed on     1 nodes
     Waiting for input...
     Reading input from standard input

     Current dimensions of program PWSCF are:
     Max number of different atomic species (ntypx) = 10
     Max number of k-points (npk) =  40000
     Max angular momentum in pseudopotentials (lmaxx) =  3
               file Pb.pbe-dn-rrkjus_psl.1.0.0.UPF: wavefunction(s)  6S 5D renormalized

     Subspace diagonalization in iterative solution of the eigenvalue problem:
     a serial algorithm will be used


     G-vector sticks info
     --------------------
     sticks:   dense  smooth     PW     G-vecs:    dense   smooth      PW
     Sum        1639     823    253                43895    15593    2565


     Title: 
     Lead                                                                       


     bravais-lattice index     =            2
     lattice parameter (alat)  =       9.2226  a.u.
     unit-cell volume          =     196.1075 (a.u.)^3
     number of atoms/cell      =            1
     number of atomic types    =            1
     number of electrons       =        14.00
     number of Kohn-Sham states=           11
     kinetic-energy cutoff     =      70.0000  Ry
     charge density cutoff     =     560.0000  Ry
     convergence threshold     =      1.0E-09
     mixing beta               =       0.7000
     number of iterations used =            8  plain     mixing
     Exchange-correlation      = PBE ( 1  4  3  4 0 0)

     celldm(1)=   9.222558  celldm(2)=   0.000000  celldm(3)=   0.000000
     celldm(4)=   0.000000  celldm(5)=   0.000000  celldm(6)=   0.000000

     crystal axes: (cart. coord. in units of alat)
               a(1) = (  -0.500000   0.000000   0.500000 )  
               a(2) = (   0.000000   0.500000   0.500000 )  
               a(3) = (  -0.500000   0.500000   0.000000 )  

     reciprocal axes: (cart. coord. in units 2 pi/alat)
               b(1) = ( -1.000000 -1.000000  1.000000 )  
               b(2) = (  1.000000  1.000000  1.000000 )  
               b(3) = ( -1.000000  1.000000 -1.000000 )  


     PseudoPot. # 1 for Pb read from file:
     /home/elena/qe-6.7/pseudo/Pb.pbe-dn-rrkjus_psl.1.0.0.UPF
     MD5 check sum: 1cf8f5e18580e6a90a35f98a53d336de
     Pseudo is Ultrasoft + core correction, Zval = 14.0
     Generated using "atomic" code by A. Dal Corso v.6.3
     Using radial grid of 1281 points,  6 beta functions with: 
                l(1) =   0
                l(2) =   0
                l(3) =   1
                l(4) =   1
                l(5) =   2
                l(6) =   2
     Q(r) pseudized with 0 coefficients 


     atomic species   valence    mass     pseudopotential
        Pb            14.00   207.20000     Pb( 1.00)

     48 Sym. Ops., with inversion, found



   Cartesian axes

     site n.     atom                  positions (alat units)
         1           Pb  tau(   1) = (   0.0000000   0.0000000   0.0000000  )

     number of k points=     8  Methfessel-Paxton smearing, width (Ry)=  0.0400
                       cart. coord. in units 2pi/alat
        k(    1) = (   0.0000000   0.0000000   0.0000000), wk =   0.0312500
        k(    2) = (  -0.2500000   0.2500000  -0.2500000), wk =   0.2500000
        k(    3) = (   0.5000000  -0.5000000   0.5000000), wk =   0.1250000
        k(    4) = (   0.0000000   0.5000000   0.0000000), wk =   0.1875000
        k(    5) = (   0.7500000  -0.2500000   0.7500000), wk =   0.7500000
        k(    6) = (   0.5000000   0.0000000   0.5000000), wk =   0.3750000
        k(    7) = (   0.0000000  -1.0000000   0.0000000), wk =   0.0937500
        k(    8) = (  -0.5000000  -1.0000000   0.0000000), wk =   0.1875000

     Dense  grid:    43895 G-vectors     FFT dimensions: (  50,  50,  50)

     Smooth grid:    15593 G-vectors     FFT dimensions: (  36,  36,  36)

     Estimated max dynamical RAM per process >     158.12 MB

     Initial potential from superposition of free atoms

     starting charge   13.99765, renormalised to   14.00000
     Starting wfcs are    9 randomized atomic wfcs +    2 random wfcs

     total cpu time spent up to now is        1.9 secs

     Self-consistent Calculation

     iteration #  1     ecut=    70.00 Ry     beta= 0.70
     Davidson diagonalization with overlap
     ethr =  1.00E-02,  avg # of iterations =  3.8

     Threshold (ethr) on eigenvalues was too large:
     Diagonalizing with lowered threshold

     Davidson diagonalization with overlap
     ethr =  2.01E-05,  avg # of iterations =  4.4

     total cpu time spent up to now is        3.3 secs

     total energy              =    -135.42367228 Ry
     Harris-Foulkes estimate   =    -135.42537707 Ry
     estimated scf accuracy    <       0.00276222 Ry

     iteration #  2     ecut=    70.00 Ry     beta= 0.70
     Davidson diagonalization with overlap
     ethr =  1.97E-05,  avg # of iterations =  3.5

     total cpu time spent up to now is        4.1 secs

     total energy              =    -135.42423350 Ry
     Harris-Foulkes estimate   =    -135.42437360 Ry
     estimated scf accuracy    <       0.00023421 Ry

     iteration #  3     ecut=    70.00 Ry     beta= 0.70
     Davidson diagonalization with overlap
     ethr =  1.67E-06,  avg # of iterations =  2.1

     total cpu time spent up to now is        4.9 secs

     total energy              =    -135.42428336 Ry
     Harris-Foulkes estimate   =    -135.42428491 Ry
     estimated scf accuracy    <       0.00000966 Ry

     iteration #  4     ecut=    70.00 Ry     beta= 0.70
     Davidson diagonalization with overlap
     ethr =  6.90E-08,  avg # of iterations =  2.0

     total cpu time spent up to now is        5.6 secs

     total energy              =    -135.42428467 Ry
     Harris-Foulkes estimate   =    -135.42428460 Ry
     estimated scf accuracy    <       0.00000011 Ry

     iteration #  5     ecut=    70.00 Ry     beta= 0.70
     Davidson diagonalization with overlap
     ethr =  8.02E-10,  avg # of iterations =  2.1

     total cpu time spent up to now is        6.6 secs

     total energy              =    -135.42428470 Ry
     Harris-Foulkes estimate   =    -135.42428472 Ry
     estimated scf accuracy    <       0.00000003 Ry

     iteration #  6     ecut=    70.00 Ry     beta= 0.70
     Davidson diagonalization with overlap
     ethr =  1.82E-10,  avg # of iterations =  2.0

     total cpu time spent up to now is        7.4 secs

     total energy              =    -135.42428471 Ry
     Harris-Foulkes estimate   =    -135.42428471 Ry
     estimated scf accuracy    <          1.1E-09 Ry

     iteration #  7     ecut=    70.00 Ry     beta= 0.70
     Davidson diagonalization with overlap
     ethr =  7.92E-12,  avg # of iterations =  2.0

     total cpu time spent up to now is        8.1 secs

     End of self-consistent calculation

          k = 0.0000 0.0000 0.0000 (  1917 PWs)   bands (ev):

    -5.2704  -5.2704  -5.2704  -5.1069  -5.1069  -0.1956  19.6309  19.6309
    19.6309  21.9733  23.7317

          k =-0.2500 0.2500-0.2500 (  1949 PWs)   bands (ev):

    -5.2827  -5.2290  -5.2290  -5.0689  -5.0689   1.0618  12.6870  18.5326
    18.5326  21.1557  23.7804

          k = 0.5000-0.5000 0.5000 (  1946 PWs)   bands (ev):

    -5.3102  -5.2560  -5.2560  -4.9582  -4.9582   3.6827   7.4401  17.7030
    17.7030  21.3785  21.7183

          k = 0.0000 0.5000 0.0000 (  1964 PWs)   bands (ev):

    -5.3648  -5.2194  -5.1023  -5.1023  -5.0378   1.4776  14.3406  15.9884
    15.9884  19.6459  19.7067

          k = 0.7500-0.2500 0.7500 (  1941 PWs)   bands (ev):

    -5.3482  -5.2286  -5.1058  -5.0565  -4.9492   4.0142   9.3178  12.9406
    15.4105  18.8735  23.8876

          k = 0.5000 0.0000 0.5000 (  1947 PWs)   bands (ev):

    -5.2702  -5.2173  -5.1285  -5.0886  -5.0358   3.0169  10.7806  12.3055
    17.4903  20.2879  25.1365

          k = 0.0000-1.0000 0.0000 (  1964 PWs)   bands (ev):

    -5.4578  -5.3555  -4.9678  -4.9217  -4.9217   5.1959   8.4191  13.9804
    13.9804  17.3734  18.6548

          k =-0.5000-1.0000 0.0000 (  1912 PWs)   bands (ev):

    -5.2554  -5.2050  -5.2050  -5.0553  -4.9214   5.3117  10.4067  10.4067
    12.0968  23.0773  24.4486

     the Fermi energy is    12.2643 ev

!    total energy              =    -135.42428471 Ry
     Harris-Foulkes estimate   =    -135.42428471 Ry
     estimated scf accuracy    <          2.6E-11 Ry

     The total energy is the sum of the following terms:

     one-electron contribution =     -31.43398437 Ry
     hartree contribution      =      26.06989709 Ry
     xc contribution           =     -32.62082554 Ry
     ewald contribution        =     -97.43857717 Ry
     smearing contrib. (-TS)   =      -0.00079473 Ry

     convergence has been achieved in   7 iterations

     Writing output data file Pb.save/

     init_run     :      1.07s CPU      1.13s WALL (       1 calls)
     electrons    :      5.57s CPU      6.24s WALL (       1 calls)

     Called by init_run:
     wfcinit      :      0.13s CPU      0.13s WALL (       1 calls)
     potinit      :      0.07s CPU      0.08s WALL (       1 calls)
     hinit0       :      0.75s CPU      0.76s WALL (       1 calls)

     Called by electrons:
     c_bands      :      3.07s CPU      3.08s WALL (       8 calls)
     sum_band     :      1.43s CPU      1.80s WALL (       8 calls)
     v_of_rho     :      0.46s CPU      0.48s WALL (       8 calls)
     newd         :      0.65s CPU      0.99s WALL (       8 calls)
     mix_rho      :      0.04s CPU      0.04s WALL (       8 calls)

     Called by c_bands:
     init_us_2    :      0.07s CPU      0.07s WALL (     136 calls)
     cegterg      :      2.92s CPU      2.93s WALL (      64 calls)

     Called by sum_band:
     sum_band:bec :      0.00s CPU      0.00s WALL (      64 calls)
     addusdens    :      0.85s CPU      1.22s WALL (       8 calls)

     Called by *egterg:
     h_psi        :      2.33s CPU      2.34s WALL (     247 calls)
     s_psi        :      0.12s CPU      0.12s WALL (     247 calls)
     g_psi        :      0.02s CPU      0.02s WALL (     175 calls)
     cdiaghg      :      0.05s CPU      0.05s WALL (     231 calls)

     Called by h_psi:
     h_psi:pot    :      2.32s CPU      2.33s WALL (     247 calls)
     h_psi:calbec :      0.13s CPU      0.13s WALL (     247 calls)
     vloc_psi     :      2.08s CPU      2.09s WALL (     247 calls)
     add_vuspsi   :      0.12s CPU      0.12s WALL (     247 calls)

     General routines
     calbec       :      0.17s CPU      0.17s WALL (     311 calls)
     fft          :      0.22s CPU      0.22s WALL (     103 calls)
     ffts         :      0.02s CPU      0.02s WALL (      16 calls)
     fftw         :      2.19s CPU      2.20s WALL (    4552 calls)
     interpolate  :      0.03s CPU      0.03s WALL (       8 calls)

     Parallel routines

     PWSCF        :      7.41s CPU      8.15s WALL


   This run was terminated on:  19:51:25  30Jun2021            

=------------------------------------------------------------------------------=
   JOB DONE.
=------------------------------------------------------------------------------=
