
     Program PWSCF v.6.4.1 starts on 30Jun2021 at 19:50:25 

     This program is part of the open-source Quantum ESPRESSO suite
     for quantum simulation of materials; please cite
         "P. Giannozzi et al., J. Phys.:Condens. Matter 21 395502 (2009);
         "P. Giannozzi et al., J. Phys.:Condens. Matter 29 465901 (2017);
          URL http://www.quantum-espresso.org", 
     in publications or presentations arising from this work. More details at
     http://www.quantum-espresso.org/quote

     Parallel version (MPI), running on     1 processors

     MPI processes distributed on     1 nodes
     Waiting for input...
     Reading input from standard input

     Current dimensions of program PWSCF are:
     Max number of different atomic species (ntypx) = 10
     Max number of k-points (npk) =  40000
     Max angular momentum in pseudopotentials (lmaxx) =  3
               file Pb.pbe-dn-rrkjus_psl.1.0.0.UPF: wavefunction(s)  6S 5D renormalized

     Subspace diagonalization in iterative solution of the eigenvalue problem:
     a serial algorithm will be used


     G-vector sticks info
     --------------------
     sticks:   dense  smooth     PW     G-vecs:    dense   smooth      PW
     Sum        1639     823    253                43895    15593    2565


     Title: 
     Lead                                                                       


     bravais-lattice index     =            2
     lattice parameter (alat)  =       9.2226  a.u.
     unit-cell volume          =     196.1075 (a.u.)^3
     number of atoms/cell      =            1
     number of atomic types    =            1
     number of electrons       =        14.00
     number of Kohn-Sham states=           11
     kinetic-energy cutoff     =      70.0000  Ry
     charge density cutoff     =     560.0000  Ry
     convergence threshold     =      1.0E-09
     mixing beta               =       0.7000
     number of iterations used =            8  plain     mixing
     Exchange-correlation      = PBE ( 1  4  3  4 0 0)

     celldm(1)=   9.222558  celldm(2)=   0.000000  celldm(3)=   0.000000
     celldm(4)=   0.000000  celldm(5)=   0.000000  celldm(6)=   0.000000

     crystal axes: (cart. coord. in units of alat)
               a(1) = (  -0.500000   0.000000   0.500000 )  
               a(2) = (   0.000000   0.500000   0.500000 )  
               a(3) = (  -0.500000   0.500000   0.000000 )  

     reciprocal axes: (cart. coord. in units 2 pi/alat)
               b(1) = ( -1.000000 -1.000000  1.000000 )  
               b(2) = (  1.000000  1.000000  1.000000 )  
               b(3) = ( -1.000000  1.000000 -1.000000 )  


     PseudoPot. # 1 for Pb read from file:
     /home/elena/qe-6.7/pseudo/Pb.pbe-dn-rrkjus_psl.1.0.0.UPF
     MD5 check sum: 1cf8f5e18580e6a90a35f98a53d336de
     Pseudo is Ultrasoft + core correction, Zval = 14.0
     Generated using "atomic" code by A. Dal Corso v.6.3
     Using radial grid of 1281 points,  6 beta functions with: 
                l(1) =   0
                l(2) =   0
                l(3) =   1
                l(4) =   1
                l(5) =   2
                l(6) =   2
     Q(r) pseudized with 0 coefficients 


     atomic species   valence    mass     pseudopotential
        Pb            14.00   207.20000     Pb( 1.00)

     48 Sym. Ops., with inversion, found



   Cartesian axes

     site n.     atom                  positions (alat units)
         1           Pb  tau(   1) = (   0.0000000   0.0000000   0.0000000  )

     number of k points=     8  Methfessel-Paxton smearing, width (Ry)=  0.1000
                       cart. coord. in units 2pi/alat
        k(    1) = (   0.0000000   0.0000000   0.0000000), wk =   0.0312500
        k(    2) = (  -0.2500000   0.2500000  -0.2500000), wk =   0.2500000
        k(    3) = (   0.5000000  -0.5000000   0.5000000), wk =   0.1250000
        k(    4) = (   0.0000000   0.5000000   0.0000000), wk =   0.1875000
        k(    5) = (   0.7500000  -0.2500000   0.7500000), wk =   0.7500000
        k(    6) = (   0.5000000   0.0000000   0.5000000), wk =   0.3750000
        k(    7) = (   0.0000000  -1.0000000   0.0000000), wk =   0.0937500
        k(    8) = (  -0.5000000  -1.0000000   0.0000000), wk =   0.1875000

     Dense  grid:    43895 G-vectors     FFT dimensions: (  50,  50,  50)

     Smooth grid:    15593 G-vectors     FFT dimensions: (  36,  36,  36)

     Estimated max dynamical RAM per process >     158.12 MB

     Initial potential from superposition of free atoms

     starting charge   13.99765, renormalised to   14.00000
     Starting wfcs are    9 randomized atomic wfcs +    2 random wfcs

     total cpu time spent up to now is        2.1 secs

     Self-consistent Calculation

     iteration #  1     ecut=    70.00 Ry     beta= 0.70
     Davidson diagonalization with overlap
     ethr =  1.00E-02,  avg # of iterations =  3.8

     Threshold (ethr) on eigenvalues was too large:
     Diagonalizing with lowered threshold

     Davidson diagonalization with overlap
     ethr =  1.81E-05,  avg # of iterations =  4.4

     total cpu time spent up to now is        3.9 secs

     total energy              =    -135.42521458 Ry
     Harris-Foulkes estimate   =    -135.42677156 Ry
     estimated scf accuracy    <       0.00251261 Ry

     iteration #  2     ecut=    70.00 Ry     beta= 0.70
     Davidson diagonalization with overlap
     ethr =  1.79E-05,  avg # of iterations =  3.5

     total cpu time spent up to now is        4.8 secs

     total energy              =    -135.42573188 Ry
     Harris-Foulkes estimate   =    -135.42586055 Ry
     estimated scf accuracy    <       0.00021690 Ry

     iteration #  3     ecut=    70.00 Ry     beta= 0.70
     Davidson diagonalization with overlap
     ethr =  1.55E-06,  avg # of iterations =  2.1

     total cpu time spent up to now is        5.6 secs

     total energy              =    -135.42577783 Ry
     Harris-Foulkes estimate   =    -135.42577909 Ry
     estimated scf accuracy    <       0.00000903 Ry

     iteration #  4     ecut=    70.00 Ry     beta= 0.70
     Davidson diagonalization with overlap
     ethr =  6.45E-08,  avg # of iterations =  2.0

     total cpu time spent up to now is        6.4 secs

     total energy              =    -135.42577904 Ry
     Harris-Foulkes estimate   =    -135.42577896 Ry
     estimated scf accuracy    <       0.00000011 Ry

     iteration #  5     ecut=    70.00 Ry     beta= 0.70
     Davidson diagonalization with overlap
     ethr =  7.75E-10,  avg # of iterations =  2.1

     total cpu time spent up to now is        7.1 secs

     total energy              =    -135.42577907 Ry
     Harris-Foulkes estimate   =    -135.42577908 Ry
     estimated scf accuracy    <       0.00000002 Ry

     iteration #  6     ecut=    70.00 Ry     beta= 0.70
     Davidson diagonalization with overlap
     ethr =  1.49E-10,  avg # of iterations =  2.0

     total cpu time spent up to now is        7.9 secs

     End of self-consistent calculation

          k = 0.0000 0.0000 0.0000 (  1917 PWs)   bands (ev):

    -5.2513  -5.2513  -5.2513  -5.0897  -5.0897  -0.1886  19.6373  19.6373
    19.6373  21.9757  23.7409

          k =-0.2500 0.2500-0.2500 (  1949 PWs)   bands (ev):

    -5.2637  -5.2105  -5.2105  -5.0511  -5.0511   1.0691  12.6932  18.5395
    18.5395  21.1600  23.7850

          k = 0.5000-0.5000 0.5000 (  1946 PWs)   bands (ev):

    -5.2914  -5.2381  -5.2381  -4.9396  -4.9396   3.6918   7.4445  17.7101
    17.7101  21.3819  21.7243

          k = 0.0000 0.5000 0.0000 (  1964 PWs)   bands (ev):

    -5.3458  -5.2024  -5.0830  -5.0830  -5.0205   1.4850  14.3484  15.9944
    15.9944  19.6497  19.7111

          k = 0.7500-0.2500 0.7500 (  1941 PWs)   bands (ev):

    -5.3298  -5.2111  -5.0879  -5.0374  -4.9304   4.0229   9.3232  12.9465
    15.4166  18.8782  23.8926

          k = 0.5000 0.0000 0.5000 (  1947 PWs)   bands (ev):

    -5.2521  -5.1982  -5.1114  -5.0693  -5.0177   3.0249  10.7869  12.3109
    17.4973  20.2924  25.1397

          k = 0.0000-1.0000 0.0000 (  1964 PWs)   bands (ev):

    -5.4391  -5.3388  -4.9505  -4.9022  -4.9022   5.2059   8.4239  13.9860
    13.9860  17.3789  18.6591

          k =-0.5000-1.0000 0.0000 (  1912 PWs)   bands (ev):

    -5.2385  -5.1859  -5.1859  -5.0381  -4.9019   5.3217  10.4119  10.4119
    12.1020  23.0842  24.4528

     the Fermi energy is    12.0093 ev

!    total energy              =    -135.42577907 Ry
     Harris-Foulkes estimate   =    -135.42577907 Ry
     estimated scf accuracy    <          7.6E-10 Ry

     The total energy is the sum of the following terms:

     one-electron contribution =     -31.44866160 Ry
     hartree contribution      =      26.08585325 Ry
     xc contribution           =     -32.62277664 Ry
     ewald contribution        =     -97.43857717 Ry
     smearing contrib. (-TS)   =      -0.00161691 Ry

     convergence has been achieved in   6 iterations

     Writing output data file Pb.save/

     init_run     :      1.18s CPU      1.22s WALL (       1 calls)
     electrons    :      5.16s CPU      5.79s WALL (       1 calls)

     Called by init_run:
     wfcinit      :      0.14s CPU      0.14s WALL (       1 calls)
     potinit      :      0.08s CPU      0.08s WALL (       1 calls)
     hinit0       :      0.83s CPU      0.83s WALL (       1 calls)

     Called by electrons:
     c_bands      :      2.97s CPU      2.99s WALL (       7 calls)
     sum_band     :      1.26s CPU      1.57s WALL (       7 calls)
     v_of_rho     :      0.42s CPU      0.43s WALL (       7 calls)
     newd         :      0.58s CPU      0.92s WALL (       7 calls)
     mix_rho      :      0.04s CPU      0.04s WALL (       7 calls)

     Called by c_bands:
     init_us_2    :      0.06s CPU      0.07s WALL (     120 calls)
     cegterg      :      2.82s CPU      2.84s WALL (      56 calls)

     Called by sum_band:
     sum_band:bec :      0.00s CPU      0.00s WALL (      56 calls)
     addusdens    :      0.73s CPU      1.04s WALL (       7 calls)

     Called by *egterg:
     h_psi        :      2.26s CPU      2.27s WALL (     223 calls)
     s_psi        :      0.11s CPU      0.11s WALL (     223 calls)
     g_psi        :      0.01s CPU      0.01s WALL (     159 calls)
     cdiaghg      :      0.05s CPU      0.05s WALL (     207 calls)

     Called by h_psi:
     h_psi:pot    :      2.25s CPU      2.26s WALL (     223 calls)
     h_psi:calbec :      0.12s CPU      0.13s WALL (     223 calls)
     vloc_psi     :      2.01s CPU      2.02s WALL (     223 calls)
     add_vuspsi   :      0.11s CPU      0.11s WALL (     223 calls)

     General routines
     calbec       :      0.17s CPU      0.17s WALL (     279 calls)
     fft          :      0.20s CPU      0.20s WALL (      90 calls)
     ffts         :      0.02s CPU      0.02s WALL (      14 calls)
     fftw         :      2.08s CPU      2.10s WALL (    4028 calls)
     interpolate  :      0.03s CPU      0.03s WALL (       7 calls)

     Parallel routines

     PWSCF        :      7.25s CPU      7.94s WALL


   This run was terminated on:  19:50:33  30Jun2021            

=------------------------------------------------------------------------------=
   JOB DONE.
=------------------------------------------------------------------------------=
