
     Program PWSCF v.6.4.1 starts on 30Jun2021 at 19:50:51 

     This program is part of the open-source Quantum ESPRESSO suite
     for quantum simulation of materials; please cite
         "P. Giannozzi et al., J. Phys.:Condens. Matter 21 395502 (2009);
         "P. Giannozzi et al., J. Phys.:Condens. Matter 29 465901 (2017);
          URL http://www.quantum-espresso.org", 
     in publications or presentations arising from this work. More details at
     http://www.quantum-espresso.org/quote

     Parallel version (MPI), running on     1 processors

     MPI processes distributed on     1 nodes
     Waiting for input...
     Reading input from standard input

     Current dimensions of program PWSCF are:
     Max number of different atomic species (ntypx) = 10
     Max number of k-points (npk) =  40000
     Max angular momentum in pseudopotentials (lmaxx) =  3
               file Pb.pbe-dn-rrkjus_psl.1.0.0.UPF: wavefunction(s)  6S 5D renormalized

     Subspace diagonalization in iterative solution of the eigenvalue problem:
     a serial algorithm will be used


     G-vector sticks info
     --------------------
     sticks:   dense  smooth     PW     G-vecs:    dense   smooth      PW
     Sum        1639     823    253                43895    15593    2565


     Title: 
     Lead                                                                       


     bravais-lattice index     =            2
     lattice parameter (alat)  =       9.2226  a.u.
     unit-cell volume          =     196.1075 (a.u.)^3
     number of atoms/cell      =            1
     number of atomic types    =            1
     number of electrons       =        14.00
     number of Kohn-Sham states=           11
     kinetic-energy cutoff     =      70.0000  Ry
     charge density cutoff     =     560.0000  Ry
     convergence threshold     =      1.0E-09
     mixing beta               =       0.7000
     number of iterations used =            8  plain     mixing
     Exchange-correlation      = PBE ( 1  4  3  4 0 0)

     celldm(1)=   9.222558  celldm(2)=   0.000000  celldm(3)=   0.000000
     celldm(4)=   0.000000  celldm(5)=   0.000000  celldm(6)=   0.000000

     crystal axes: (cart. coord. in units of alat)
               a(1) = (  -0.500000   0.000000   0.500000 )  
               a(2) = (   0.000000   0.500000   0.500000 )  
               a(3) = (  -0.500000   0.500000   0.000000 )  

     reciprocal axes: (cart. coord. in units 2 pi/alat)
               b(1) = ( -1.000000 -1.000000  1.000000 )  
               b(2) = (  1.000000  1.000000  1.000000 )  
               b(3) = ( -1.000000  1.000000 -1.000000 )  


     PseudoPot. # 1 for Pb read from file:
     /home/elena/qe-6.7/pseudo/Pb.pbe-dn-rrkjus_psl.1.0.0.UPF
     MD5 check sum: 1cf8f5e18580e6a90a35f98a53d336de
     Pseudo is Ultrasoft + core correction, Zval = 14.0
     Generated using "atomic" code by A. Dal Corso v.6.3
     Using radial grid of 1281 points,  6 beta functions with: 
                l(1) =   0
                l(2) =   0
                l(3) =   1
                l(4) =   1
                l(5) =   2
                l(6) =   2
     Q(r) pseudized with 0 coefficients 


     atomic species   valence    mass     pseudopotential
        Pb            14.00   207.20000     Pb( 1.00)

     48 Sym. Ops., with inversion, found



   Cartesian axes

     site n.     atom                  positions (alat units)
         1           Pb  tau(   1) = (   0.0000000   0.0000000   0.0000000  )

     number of k points=     8  Methfessel-Paxton smearing, width (Ry)=  0.0700
                       cart. coord. in units 2pi/alat
        k(    1) = (   0.0000000   0.0000000   0.0000000), wk =   0.0312500
        k(    2) = (  -0.2500000   0.2500000  -0.2500000), wk =   0.2500000
        k(    3) = (   0.5000000  -0.5000000   0.5000000), wk =   0.1250000
        k(    4) = (   0.0000000   0.5000000   0.0000000), wk =   0.1875000
        k(    5) = (   0.7500000  -0.2500000   0.7500000), wk =   0.7500000
        k(    6) = (   0.5000000   0.0000000   0.5000000), wk =   0.3750000
        k(    7) = (   0.0000000  -1.0000000   0.0000000), wk =   0.0937500
        k(    8) = (  -0.5000000  -1.0000000   0.0000000), wk =   0.1875000

     Dense  grid:    43895 G-vectors     FFT dimensions: (  50,  50,  50)

     Smooth grid:    15593 G-vectors     FFT dimensions: (  36,  36,  36)

     Estimated max dynamical RAM per process >     158.12 MB

     Initial potential from superposition of free atoms

     starting charge   13.99765, renormalised to   14.00000
     Starting wfcs are    9 randomized atomic wfcs +    2 random wfcs

     total cpu time spent up to now is        2.1 secs

     Self-consistent Calculation

     iteration #  1     ecut=    70.00 Ry     beta= 0.70
     Davidson diagonalization with overlap
     ethr =  1.00E-02,  avg # of iterations =  3.8

     Threshold (ethr) on eigenvalues was too large:
     Diagonalizing with lowered threshold

     Davidson diagonalization with overlap
     ethr =  1.85E-05,  avg # of iterations =  4.4

     total cpu time spent up to now is        3.5 secs

     total energy              =    -135.42462875 Ry
     Harris-Foulkes estimate   =    -135.42622094 Ry
     estimated scf accuracy    <       0.00255703 Ry

     iteration #  2     ecut=    70.00 Ry     beta= 0.70
     Davidson diagonalization with overlap
     ethr =  1.83E-05,  avg # of iterations =  3.5

     total cpu time spent up to now is        4.4 secs

     total energy              =    -135.42515507 Ry
     Harris-Foulkes estimate   =    -135.42528626 Ry
     estimated scf accuracy    <       0.00021898 Ry

     iteration #  3     ecut=    70.00 Ry     beta= 0.70
     Davidson diagonalization with overlap
     ethr =  1.56E-06,  avg # of iterations =  2.1

     total cpu time spent up to now is        5.2 secs

     total energy              =    -135.42520176 Ry
     Harris-Foulkes estimate   =    -135.42520311 Ry
     estimated scf accuracy    <       0.00000893 Ry

     iteration #  4     ecut=    70.00 Ry     beta= 0.70
     Davidson diagonalization with overlap
     ethr =  6.38E-08,  avg # of iterations =  2.0

     total cpu time spent up to now is        5.9 secs

     total energy              =    -135.42520296 Ry
     Harris-Foulkes estimate   =    -135.42520289 Ry
     estimated scf accuracy    <       0.00000010 Ry

     iteration #  5     ecut=    70.00 Ry     beta= 0.70
     Davidson diagonalization with overlap
     ethr =  7.49E-10,  avg # of iterations =  2.1

     total cpu time spent up to now is        6.8 secs

     total energy              =    -135.42520299 Ry
     Harris-Foulkes estimate   =    -135.42520301 Ry
     estimated scf accuracy    <       0.00000002 Ry

     iteration #  6     ecut=    70.00 Ry     beta= 0.70
     Davidson diagonalization with overlap
     ethr =  1.62E-10,  avg # of iterations =  2.0

     total cpu time spent up to now is        7.6 secs

     End of self-consistent calculation

          k = 0.0000 0.0000 0.0000 (  1917 PWs)   bands (ev):

    -5.2559  -5.2559  -5.2559  -5.0934  -5.0934  -0.1905  19.6356  19.6356
    19.6356  21.9753  23.7377

          k =-0.2500 0.2500-0.2500 (  1949 PWs)   bands (ev):

    -5.2684  -5.2149  -5.2149  -5.0551  -5.0551   1.0671  12.6915  18.5376
    18.5376  21.1590  23.7836

          k = 0.5000-0.5000 0.5000 (  1946 PWs)   bands (ev):

    -5.2960  -5.2422  -5.2422  -4.9439  -4.9439   3.6894   7.4433  17.7082
    17.7082  21.3806  21.7231

          k = 0.0000 0.5000 0.0000 (  1964 PWs)   bands (ev):

    -5.3505  -5.2060  -5.0877  -5.0877  -5.0243   1.4830  14.3462  15.9928
    15.9928  19.6490  19.7096

          k = 0.7500-0.2500 0.7500 (  1941 PWs)   bands (ev):

    -5.3342  -5.2150  -5.0919  -5.0420  -4.9348   4.0206   9.3218  12.9450
    15.4149  18.8768  23.8913

          k = 0.5000 0.0000 0.5000 (  1947 PWs)   bands (ev):

    -5.2563  -5.2028  -5.1150  -5.0740  -5.0218   3.0228  10.7851  12.3095
    17.4954  20.2911  25.1391

          k = 0.0000-1.0000 0.0000 (  1964 PWs)   bands (ev):

    -5.4437  -5.3424  -4.9542  -4.9069  -4.9069   5.2032   8.4226  13.9845
    13.9845  17.3770  18.6583

          k =-0.5000-1.0000 0.0000 (  1912 PWs)   bands (ev):

    -5.2422  -5.1905  -5.1905  -5.0417  -4.9066   5.3191  10.4106  10.4106
    12.1004  23.0818  24.4519

     the Fermi energy is    12.1567 ev

!    total energy              =    -135.42520300 Ry
     Harris-Foulkes estimate   =    -135.42520300 Ry
     estimated scf accuracy    <          9.9E-10 Ry

     The total energy is the sum of the following terms:

     one-electron contribution =     -31.44430005 Ry
     hartree contribution      =      26.08195809 Ry
     xc contribution           =     -32.62234977 Ry
     ewald contribution        =     -97.43857717 Ry
     smearing contrib. (-TS)   =      -0.00193411 Ry

     convergence has been achieved in   6 iterations

     Writing output data file Pb.save/

     init_run     :      1.16s CPU      1.21s WALL (       1 calls)
     electrons    :      4.94s CPU      5.48s WALL (       1 calls)

     Called by init_run:
     wfcinit      :      0.14s CPU      0.15s WALL (       1 calls)
     potinit      :      0.08s CPU      0.08s WALL (       1 calls)
     hinit0       :      0.80s CPU      0.81s WALL (       1 calls)

     Called by electrons:
     c_bands      :      2.83s CPU      2.85s WALL (       7 calls)
     sum_band     :      1.17s CPU      1.45s WALL (       7 calls)
     v_of_rho     :      0.41s CPU      0.42s WALL (       7 calls)
     newd         :      0.62s CPU      0.88s WALL (       7 calls)
     mix_rho      :      0.03s CPU      0.04s WALL (       7 calls)

     Called by c_bands:
     init_us_2    :      0.06s CPU      0.06s WALL (     120 calls)
     cegterg      :      2.69s CPU      2.70s WALL (      56 calls)

     Called by sum_band:
     sum_band:bec :      0.00s CPU      0.00s WALL (      56 calls)
     addusdens    :      0.69s CPU      0.97s WALL (       7 calls)

     Called by *egterg:
     h_psi        :      2.17s CPU      2.18s WALL (     223 calls)
     s_psi        :      0.11s CPU      0.11s WALL (     223 calls)
     g_psi        :      0.01s CPU      0.01s WALL (     159 calls)
     cdiaghg      :      0.05s CPU      0.05s WALL (     207 calls)

     Called by h_psi:
     h_psi:pot    :      2.16s CPU      2.17s WALL (     223 calls)
     h_psi:calbec :      0.12s CPU      0.12s WALL (     223 calls)
     vloc_psi     :      1.93s CPU      1.94s WALL (     223 calls)
     add_vuspsi   :      0.11s CPU      0.11s WALL (     223 calls)

     General routines
     calbec       :      0.16s CPU      0.16s WALL (     279 calls)
     fft          :      0.19s CPU      0.20s WALL (      90 calls)
     ffts         :      0.02s CPU      0.02s WALL (      14 calls)
     fftw         :      2.00s CPU      2.01s WALL (    4018 calls)
     interpolate  :      0.03s CPU      0.03s WALL (       7 calls)

     Parallel routines

     PWSCF        :      6.99s CPU      7.58s WALL


   This run was terminated on:  19:50:58  30Jun2021            

=------------------------------------------------------------------------------=
   JOB DONE.
=------------------------------------------------------------------------------=
