
     Program PWSCF v.6.4.1 starts on 30Jun2021 at 19:50:43 

     This program is part of the open-source Quantum ESPRESSO suite
     for quantum simulation of materials; please cite
         "P. Giannozzi et al., J. Phys.:Condens. Matter 21 395502 (2009);
         "P. Giannozzi et al., J. Phys.:Condens. Matter 29 465901 (2017);
          URL http://www.quantum-espresso.org", 
     in publications or presentations arising from this work. More details at
     http://www.quantum-espresso.org/quote

     Parallel version (MPI), running on     1 processors

     MPI processes distributed on     1 nodes
     Waiting for input...
     Reading input from standard input

     Current dimensions of program PWSCF are:
     Max number of different atomic species (ntypx) = 10
     Max number of k-points (npk) =  40000
     Max angular momentum in pseudopotentials (lmaxx) =  3
               file Pb.pbe-dn-rrkjus_psl.1.0.0.UPF: wavefunction(s)  6S 5D renormalized

     Subspace diagonalization in iterative solution of the eigenvalue problem:
     a serial algorithm will be used


     G-vector sticks info
     --------------------
     sticks:   dense  smooth     PW     G-vecs:    dense   smooth      PW
     Sum        1639     823    253                43895    15593    2565


     Title: 
     Lead                                                                       


     bravais-lattice index     =            2
     lattice parameter (alat)  =       9.2226  a.u.
     unit-cell volume          =     196.1075 (a.u.)^3
     number of atoms/cell      =            1
     number of atomic types    =            1
     number of electrons       =        14.00
     number of Kohn-Sham states=           11
     kinetic-energy cutoff     =      70.0000  Ry
     charge density cutoff     =     560.0000  Ry
     convergence threshold     =      1.0E-09
     mixing beta               =       0.7000
     number of iterations used =            8  plain     mixing
     Exchange-correlation      = PBE ( 1  4  3  4 0 0)

     celldm(1)=   9.222558  celldm(2)=   0.000000  celldm(3)=   0.000000
     celldm(4)=   0.000000  celldm(5)=   0.000000  celldm(6)=   0.000000

     crystal axes: (cart. coord. in units of alat)
               a(1) = (  -0.500000   0.000000   0.500000 )  
               a(2) = (   0.000000   0.500000   0.500000 )  
               a(3) = (  -0.500000   0.500000   0.000000 )  

     reciprocal axes: (cart. coord. in units 2 pi/alat)
               b(1) = ( -1.000000 -1.000000  1.000000 )  
               b(2) = (  1.000000  1.000000  1.000000 )  
               b(3) = ( -1.000000  1.000000 -1.000000 )  


     PseudoPot. # 1 for Pb read from file:
     /home/elena/qe-6.7/pseudo/Pb.pbe-dn-rrkjus_psl.1.0.0.UPF
     MD5 check sum: 1cf8f5e18580e6a90a35f98a53d336de
     Pseudo is Ultrasoft + core correction, Zval = 14.0
     Generated using "atomic" code by A. Dal Corso v.6.3
     Using radial grid of 1281 points,  6 beta functions with: 
                l(1) =   0
                l(2) =   0
                l(3) =   1
                l(4) =   1
                l(5) =   2
                l(6) =   2
     Q(r) pseudized with 0 coefficients 


     atomic species   valence    mass     pseudopotential
        Pb            14.00   207.20000     Pb( 1.00)

     48 Sym. Ops., with inversion, found



   Cartesian axes

     site n.     atom                  positions (alat units)
         1           Pb  tau(   1) = (   0.0000000   0.0000000   0.0000000  )

     number of k points=     8  Methfessel-Paxton smearing, width (Ry)=  0.0800
                       cart. coord. in units 2pi/alat
        k(    1) = (   0.0000000   0.0000000   0.0000000), wk =   0.0312500
        k(    2) = (  -0.2500000   0.2500000  -0.2500000), wk =   0.2500000
        k(    3) = (   0.5000000  -0.5000000   0.5000000), wk =   0.1250000
        k(    4) = (   0.0000000   0.5000000   0.0000000), wk =   0.1875000
        k(    5) = (   0.7500000  -0.2500000   0.7500000), wk =   0.7500000
        k(    6) = (   0.5000000   0.0000000   0.5000000), wk =   0.3750000
        k(    7) = (   0.0000000  -1.0000000   0.0000000), wk =   0.0937500
        k(    8) = (  -0.5000000  -1.0000000   0.0000000), wk =   0.1875000

     Dense  grid:    43895 G-vectors     FFT dimensions: (  50,  50,  50)

     Smooth grid:    15593 G-vectors     FFT dimensions: (  36,  36,  36)

     Estimated max dynamical RAM per process >     158.12 MB

     Initial potential from superposition of free atoms

     starting charge   13.99765, renormalised to   14.00000
     Starting wfcs are    9 randomized atomic wfcs +    2 random wfcs

     total cpu time spent up to now is        1.9 secs

     Self-consistent Calculation

     iteration #  1     ecut=    70.00 Ry     beta= 0.70
     Davidson diagonalization with overlap
     ethr =  1.00E-02,  avg # of iterations =  3.8

     Threshold (ethr) on eigenvalues was too large:
     Diagonalizing with lowered threshold

     Davidson diagonalization with overlap
     ethr =  1.83E-05,  avg # of iterations =  4.4

     total cpu time spent up to now is        3.3 secs

     total energy              =    -135.42487071 Ry
     Harris-Foulkes estimate   =    -135.42644300 Ry
     estimated scf accuracy    <       0.00252456 Ry

     iteration #  2     ecut=    70.00 Ry     beta= 0.70
     Davidson diagonalization with overlap
     ethr =  1.80E-05,  avg # of iterations =  3.5

     total cpu time spent up to now is        4.2 secs

     total energy              =    -135.42539155 Ry
     Harris-Foulkes estimate   =    -135.42552146 Ry
     estimated scf accuracy    <       0.00021722 Ry

     iteration #  3     ecut=    70.00 Ry     beta= 0.70
     Davidson diagonalization with overlap
     ethr =  1.55E-06,  avg # of iterations =  2.1

     total cpu time spent up to now is        4.9 secs

     total energy              =    -135.42543776 Ry
     Harris-Foulkes estimate   =    -135.42543906 Ry
     estimated scf accuracy    <       0.00000885 Ry

     iteration #  4     ecut=    70.00 Ry     beta= 0.70
     Davidson diagonalization with overlap
     ethr =  6.32E-08,  avg # of iterations =  2.0

     total cpu time spent up to now is        5.7 secs

     total energy              =    -135.42543896 Ry
     Harris-Foulkes estimate   =    -135.42543889 Ry
     estimated scf accuracy    <       0.00000011 Ry

     iteration #  5     ecut=    70.00 Ry     beta= 0.70
     Davidson diagonalization with overlap
     ethr =  7.72E-10,  avg # of iterations =  2.1

     total cpu time spent up to now is        6.5 secs

     total energy              =    -135.42543899 Ry
     Harris-Foulkes estimate   =    -135.42543901 Ry
     estimated scf accuracy    <       0.00000002 Ry

     iteration #  6     ecut=    70.00 Ry     beta= 0.70
     Davidson diagonalization with overlap
     ethr =  1.63E-10,  avg # of iterations =  2.0

     total cpu time spent up to now is        7.5 secs

     End of self-consistent calculation

          k = 0.0000 0.0000 0.0000 (  1917 PWs)   bands (ev):

    -5.2533  -5.2533  -5.2533  -5.0910  -5.0910  -0.1895  19.6365  19.6365
    19.6365  21.9757  23.7390

          k =-0.2500 0.2500-0.2500 (  1949 PWs)   bands (ev):

    -5.2657  -5.2123  -5.2123  -5.0527  -5.0527   1.0682  12.6924  18.5386
    18.5386  21.1596  23.7843

          k = 0.5000-0.5000 0.5000 (  1946 PWs)   bands (ev):

    -5.2933  -5.2398  -5.2398  -4.9414  -4.9414   3.6907   7.4439  17.7092
    17.7092  21.3812  21.7239

          k = 0.0000 0.5000 0.0000 (  1964 PWs)   bands (ev):

    -5.3478  -5.2037  -5.0850  -5.0850  -5.0219   1.4841  14.3474  15.9937
    15.9937  19.6496  19.7102

          k = 0.7500-0.2500 0.7500 (  1941 PWs)   bands (ev):

    -5.3316  -5.2126  -5.0895  -5.0394  -4.9322   4.0218   9.3225  12.9458
    15.4158  18.8775  23.8920

          k = 0.5000 0.0000 0.5000 (  1947 PWs)   bands (ev):

    -5.2538  -5.2002  -5.1127  -5.0714  -5.0193   3.0239  10.7861  12.3103
    17.4964  20.2917  25.1396

          k = 0.0000-1.0000 0.0000 (  1964 PWs)   bands (ev):

    -5.4411  -5.3401  -4.9518  -4.9042  -4.9042   5.2046   8.4233  13.9853
    13.9853  17.3778  18.6589

          k =-0.5000-1.0000 0.0000 (  1912 PWs)   bands (ev):

    -5.2399  -5.1879  -5.1879  -5.0394  -4.9039   5.3205  10.4113  10.4113
    12.1012  23.0828  24.4525

     the Fermi energy is    12.1037 ev

!    total energy              =    -135.42543900 Ry
     Harris-Foulkes estimate   =    -135.42543900 Ry
     estimated scf accuracy    <          8.6E-10 Ry

     The total energy is the sum of the following terms:

     one-electron contribution =     -31.44686872 Ry
     hartree contribution      =      26.08423006 Ry
     xc contribution           =     -32.62261782 Ry
     ewald contribution        =     -97.43857717 Ry
     smearing contrib. (-TS)   =      -0.00160535 Ry

     convergence has been achieved in   6 iterations

     Writing output data file Pb.save/

     init_run     :      1.09s CPU      1.14s WALL (       1 calls)
     electrons    :      4.98s CPU      5.58s WALL (       1 calls)

     Called by init_run:
     wfcinit      :      0.13s CPU      0.13s WALL (       1 calls)
     potinit      :      0.08s CPU      0.08s WALL (       1 calls)
     hinit0       :      0.77s CPU      0.77s WALL (       1 calls)

     Called by electrons:
     c_bands      :      2.85s CPU      2.86s WALL (       7 calls)
     sum_band     :      1.17s CPU      1.49s WALL (       7 calls)
     v_of_rho     :      0.42s CPU      0.44s WALL (       7 calls)
     newd         :      0.61s CPU      0.89s WALL (       7 calls)
     mix_rho      :      0.04s CPU      0.04s WALL (       7 calls)

     Called by c_bands:
     init_us_2    :      0.06s CPU      0.06s WALL (     120 calls)
     cegterg      :      2.71s CPU      2.71s WALL (      56 calls)

     Called by sum_band:
     sum_band:bec :      0.00s CPU      0.00s WALL (      56 calls)
     addusdens    :      0.67s CPU      1.00s WALL (       7 calls)

     Called by *egterg:
     h_psi        :      2.17s CPU      2.17s WALL (     223 calls)
     s_psi        :      0.11s CPU      0.11s WALL (     223 calls)
     g_psi        :      0.01s CPU      0.01s WALL (     159 calls)
     cdiaghg      :      0.05s CPU      0.05s WALL (     207 calls)

     Called by h_psi:
     h_psi:pot    :      2.16s CPU      2.17s WALL (     223 calls)
     h_psi:calbec :      0.12s CPU      0.12s WALL (     223 calls)
     vloc_psi     :      1.93s CPU      1.94s WALL (     223 calls)
     add_vuspsi   :      0.11s CPU      0.11s WALL (     223 calls)

     General routines
     calbec       :      0.16s CPU      0.16s WALL (     279 calls)
     fft          :      0.20s CPU      0.20s WALL (      90 calls)
     ffts         :      0.02s CPU      0.02s WALL (      14 calls)
     fftw         :      2.00s CPU      2.01s WALL (    4028 calls)
     interpolate  :      0.03s CPU      0.03s WALL (       7 calls)

     Parallel routines

     PWSCF        :      6.83s CPU      7.50s WALL


   This run was terminated on:  19:50:50  30Jun2021            

=------------------------------------------------------------------------------=
   JOB DONE.
=------------------------------------------------------------------------------=
