
     Program PWSCF v.6.4.1 starts on 30Jun2021 at 19:51:35 

     This program is part of the open-source Quantum ESPRESSO suite
     for quantum simulation of materials; please cite
         "P. Giannozzi et al., J. Phys.:Condens. Matter 21 395502 (2009);
         "P. Giannozzi et al., J. Phys.:Condens. Matter 29 465901 (2017);
          URL http://www.quantum-espresso.org", 
     in publications or presentations arising from this work. More details at
     http://www.quantum-espresso.org/quote

     Parallel version (MPI), running on     1 processors

     MPI processes distributed on     1 nodes
     Waiting for input...
     Reading input from standard input

     Current dimensions of program PWSCF are:
     Max number of different atomic species (ntypx) = 10
     Max number of k-points (npk) =  40000
     Max angular momentum in pseudopotentials (lmaxx) =  3
               file Pb.pbe-dn-rrkjus_psl.1.0.0.UPF: wavefunction(s)  6S 5D renormalized

     Subspace diagonalization in iterative solution of the eigenvalue problem:
     a serial algorithm will be used


     G-vector sticks info
     --------------------
     sticks:   dense  smooth     PW     G-vecs:    dense   smooth      PW
     Sum        1639     823    253                43895    15593    2565


     Title: 
     Lead                                                                       


     bravais-lattice index     =            2
     lattice parameter (alat)  =       9.2226  a.u.
     unit-cell volume          =     196.1075 (a.u.)^3
     number of atoms/cell      =            1
     number of atomic types    =            1
     number of electrons       =        14.00
     number of Kohn-Sham states=           11
     kinetic-energy cutoff     =      70.0000  Ry
     charge density cutoff     =     560.0000  Ry
     convergence threshold     =      1.0E-09
     mixing beta               =       0.7000
     number of iterations used =            8  plain     mixing
     Exchange-correlation      = PBE ( 1  4  3  4 0 0)

     celldm(1)=   9.222558  celldm(2)=   0.000000  celldm(3)=   0.000000
     celldm(4)=   0.000000  celldm(5)=   0.000000  celldm(6)=   0.000000

     crystal axes: (cart. coord. in units of alat)
               a(1) = (  -0.500000   0.000000   0.500000 )  
               a(2) = (   0.000000   0.500000   0.500000 )  
               a(3) = (  -0.500000   0.500000   0.000000 )  

     reciprocal axes: (cart. coord. in units 2 pi/alat)
               b(1) = ( -1.000000 -1.000000  1.000000 )  
               b(2) = (  1.000000  1.000000  1.000000 )  
               b(3) = ( -1.000000  1.000000 -1.000000 )  


     PseudoPot. # 1 for Pb read from file:
     /home/elena/qe-6.7/pseudo/Pb.pbe-dn-rrkjus_psl.1.0.0.UPF
     MD5 check sum: 1cf8f5e18580e6a90a35f98a53d336de
     Pseudo is Ultrasoft + core correction, Zval = 14.0
     Generated using "atomic" code by A. Dal Corso v.6.3
     Using radial grid of 1281 points,  6 beta functions with: 
                l(1) =   0
                l(2) =   0
                l(3) =   1
                l(4) =   1
                l(5) =   2
                l(6) =   2
     Q(r) pseudized with 0 coefficients 


     atomic species   valence    mass     pseudopotential
        Pb            14.00   207.20000     Pb( 1.00)

     48 Sym. Ops., with inversion, found



   Cartesian axes

     site n.     atom                  positions (alat units)
         1           Pb  tau(   1) = (   0.0000000   0.0000000   0.0000000  )

     number of k points=     8  Methfessel-Paxton smearing, width (Ry)=  0.0200
                       cart. coord. in units 2pi/alat
        k(    1) = (   0.0000000   0.0000000   0.0000000), wk =   0.0312500
        k(    2) = (  -0.2500000   0.2500000  -0.2500000), wk =   0.2500000
        k(    3) = (   0.5000000  -0.5000000   0.5000000), wk =   0.1250000
        k(    4) = (   0.0000000   0.5000000   0.0000000), wk =   0.1875000
        k(    5) = (   0.7500000  -0.2500000   0.7500000), wk =   0.7500000
        k(    6) = (   0.5000000   0.0000000   0.5000000), wk =   0.3750000
        k(    7) = (   0.0000000  -1.0000000   0.0000000), wk =   0.0937500
        k(    8) = (  -0.5000000  -1.0000000   0.0000000), wk =   0.1875000

     Dense  grid:    43895 G-vectors     FFT dimensions: (  50,  50,  50)

     Smooth grid:    15593 G-vectors     FFT dimensions: (  36,  36,  36)

     Estimated max dynamical RAM per process >     158.12 MB

     Initial potential from superposition of free atoms

     starting charge   13.99765, renormalised to   14.00000
     Starting wfcs are    9 randomized atomic wfcs +    2 random wfcs

     total cpu time spent up to now is        1.9 secs

     Self-consistent Calculation

     iteration #  1     ecut=    70.00 Ry     beta= 0.70
     Davidson diagonalization with overlap
     ethr =  1.00E-02,  avg # of iterations =  3.8

     Threshold (ethr) on eigenvalues was too large:
     Diagonalizing with lowered threshold

     Davidson diagonalization with overlap
     ethr =  2.07E-05,  avg # of iterations =  4.4

     total cpu time spent up to now is        3.3 secs

     total energy              =    -135.42315003 Ry
     Harris-Foulkes estimate   =    -135.42489377 Ry
     estimated scf accuracy    <       0.00283874 Ry

     iteration #  2     ecut=    70.00 Ry     beta= 0.70
     Davidson diagonalization with overlap
     ethr =  2.03E-05,  avg # of iterations =  3.5

     total cpu time spent up to now is        4.1 secs

     total energy              =    -135.42371959 Ry
     Harris-Foulkes estimate   =    -135.42386171 Ry
     estimated scf accuracy    <       0.00023716 Ry

     iteration #  3     ecut=    70.00 Ry     beta= 0.70
     Davidson diagonalization with overlap
     ethr =  1.69E-06,  avg # of iterations =  2.1

     total cpu time spent up to now is        5.0 secs

     total energy              =    -135.42376996 Ry
     Harris-Foulkes estimate   =    -135.42377168 Ry
     estimated scf accuracy    <       0.00000979 Ry

     iteration #  4     ecut=    70.00 Ry     beta= 0.70
     Davidson diagonalization with overlap
     ethr =  6.99E-08,  avg # of iterations =  2.0

     total cpu time spent up to now is        5.8 secs

     total energy              =    -135.42377131 Ry
     Harris-Foulkes estimate   =    -135.42377123 Ry
     estimated scf accuracy    <       0.00000011 Ry

     iteration #  5     ecut=    70.00 Ry     beta= 0.70
     Davidson diagonalization with overlap
     ethr =  7.83E-10,  avg # of iterations =  2.1

     total cpu time spent up to now is        6.7 secs

     total energy              =    -135.42377134 Ry
     Harris-Foulkes estimate   =    -135.42377136 Ry
     estimated scf accuracy    <       0.00000003 Ry

     iteration #  6     ecut=    70.00 Ry     beta= 0.70
     Davidson diagonalization with overlap
     ethr =  1.98E-10,  avg # of iterations =  2.0

     total cpu time spent up to now is        7.5 secs

     End of self-consistent calculation

          k = 0.0000 0.0000 0.0000 (  1917 PWs)   bands (ev):

    -5.2761  -5.2761  -5.2761  -5.1108  -5.1108  -0.1980  19.6290  19.6290
    19.6290  21.9728  23.7262

          k =-0.2500 0.2500-0.2500 (  1949 PWs)   bands (ev):

    -5.2884  -5.2342  -5.2342  -5.0734  -5.0734   1.0593  12.6849  18.5303
    18.5303  21.1542  23.7783

          k = 0.5000-0.5000 0.5000 (  1946 PWs)   bands (ev):

    -5.3158  -5.2607  -5.2607  -4.9632  -4.9632   3.6796   7.4385  17.7006
    17.7006  21.3762  21.7169

          k = 0.0000 0.5000 0.0000 (  1964 PWs)   bands (ev):

    -5.3704  -5.2233  -5.1081  -5.1081  -5.0418   1.4751  14.3378  15.9866
    15.9866  19.6452  19.7042

          k = 0.7500-0.2500 0.7500 (  1941 PWs)   bands (ev):

    -5.3535  -5.2330  -5.1104  -5.0621  -4.9543   4.0112   9.3160  12.9387
    15.4085  18.8715  23.8860

          k = 0.5000 0.0000 0.5000 (  1947 PWs)   bands (ev):

    -5.2750  -5.2229  -5.1324  -5.0944  -5.0405   3.0141  10.7783  12.3039
    17.4880  20.2858  25.1361

          k = 0.0000-1.0000 0.0000 (  1964 PWs)   bands (ev):

    -5.4635  -5.3593  -4.9718  -4.9275  -4.9275   5.1925   8.4176  13.9786
    13.9786  17.3704  18.6542

          k =-0.5000-1.0000 0.0000 (  1912 PWs)   bands (ev):

    -5.2593  -5.2107  -5.2107  -5.0592  -4.9272   5.3083  10.4052  10.4052
    12.0948  23.0734  24.4477

     the Fermi energy is    12.2441 ev

!    total energy              =    -135.42377135 Ry
     Harris-Foulkes estimate   =    -135.42377135 Ry
     estimated scf accuracy    <          6.8E-10 Ry

     The total energy is the sum of the following terms:

     one-electron contribution =     -31.42904791 Ry
     hartree contribution      =      26.06505074 Ry
     xc contribution           =     -32.62038582 Ry
     ewald contribution        =     -97.43857717 Ry
     smearing contrib. (-TS)   =      -0.00081120 Ry

     convergence has been achieved in   6 iterations

     Writing output data file Pb.save/

     init_run     :      1.10s CPU      1.14s WALL (       1 calls)
     electrons    :      5.02s CPU      5.63s WALL (       1 calls)

     Called by init_run:
     wfcinit      :      0.14s CPU      0.14s WALL (       1 calls)
     potinit      :      0.07s CPU      0.08s WALL (       1 calls)
     hinit0       :      0.76s CPU      0.76s WALL (       1 calls)

     Called by electrons:
     c_bands      :      2.79s CPU      2.81s WALL (       7 calls)
     sum_band     :      1.20s CPU      1.54s WALL (       7 calls)
     v_of_rho     :      0.43s CPU      0.45s WALL (       7 calls)
     newd         :      0.66s CPU      0.93s WALL (       7 calls)
     mix_rho      :      0.04s CPU      0.04s WALL (       7 calls)

     Called by c_bands:
     init_us_2    :      0.06s CPU      0.06s WALL (     120 calls)
     cegterg      :      2.65s CPU      2.67s WALL (      56 calls)

     Called by sum_band:
     sum_band:bec :      0.00s CPU      0.00s WALL (      56 calls)
     addusdens    :      0.71s CPU      1.05s WALL (       7 calls)

     Called by *egterg:
     h_psi        :      2.15s CPU      2.16s WALL (     223 calls)
     s_psi        :      0.10s CPU      0.11s WALL (     223 calls)
     g_psi        :      0.01s CPU      0.01s WALL (     159 calls)
     cdiaghg      :      0.05s CPU      0.05s WALL (     207 calls)

     Called by h_psi:
     h_psi:pot    :      2.14s CPU      2.15s WALL (     223 calls)
     h_psi:calbec :      0.12s CPU      0.12s WALL (     223 calls)
     vloc_psi     :      1.91s CPU      1.92s WALL (     223 calls)
     add_vuspsi   :      0.11s CPU      0.11s WALL (     223 calls)

     General routines
     calbec       :      0.16s CPU      0.16s WALL (     279 calls)
     fft          :      0.21s CPU      0.21s WALL (      90 calls)
     ffts         :      0.02s CPU      0.02s WALL (      14 calls)
     fftw         :      1.98s CPU      1.99s WALL (    4004 calls)
     interpolate  :      0.03s CPU      0.03s WALL (       7 calls)

     Parallel routines

     PWSCF        :      6.89s CPU      7.55s WALL


   This run was terminated on:  19:51:42  30Jun2021            

=------------------------------------------------------------------------------=
   JOB DONE.
=------------------------------------------------------------------------------=
