
     Program PWSCF v.6.4.1 starts on 30Jun2021 at 19:52:48 

     This program is part of the open-source Quantum ESPRESSO suite
     for quantum simulation of materials; please cite
         "P. Giannozzi et al., J. Phys.:Condens. Matter 21 395502 (2009);
         "P. Giannozzi et al., J. Phys.:Condens. Matter 29 465901 (2017);
          URL http://www.quantum-espresso.org", 
     in publications or presentations arising from this work. More details at
     http://www.quantum-espresso.org/quote

     Parallel version (MPI), running on     1 processors

     MPI processes distributed on     1 nodes
     Waiting for input...
     Reading input from standard input

     Current dimensions of program PWSCF are:
     Max number of different atomic species (ntypx) = 10
     Max number of k-points (npk) =  40000
     Max angular momentum in pseudopotentials (lmaxx) =  3
               file Pb.pbe-dn-rrkjus_psl.1.0.0.UPF: wavefunction(s)  6S 5D renormalized

     Subspace diagonalization in iterative solution of the eigenvalue problem:
     a serial algorithm will be used


     G-vector sticks info
     --------------------
     sticks:   dense  smooth     PW     G-vecs:    dense   smooth      PW
     Sum        1639     823    253                43895    15593    2637


     Title: 
     Lead                                                                       


     bravais-lattice index     =            2
     lattice parameter (alat)  =       9.2226  a.u.
     unit-cell volume          =     196.1075 (a.u.)^3
     number of atoms/cell      =            1
     number of atomic types    =            1
     number of electrons       =        14.00
     number of Kohn-Sham states=           11
     kinetic-energy cutoff     =      70.0000  Ry
     charge density cutoff     =     560.0000  Ry
     convergence threshold     =      1.0E-09
     mixing beta               =       0.7000
     number of iterations used =            8  plain     mixing
     Exchange-correlation      = PBE ( 1  4  3  4 0 0)

     celldm(1)=   9.222558  celldm(2)=   0.000000  celldm(3)=   0.000000
     celldm(4)=   0.000000  celldm(5)=   0.000000  celldm(6)=   0.000000

     crystal axes: (cart. coord. in units of alat)
               a(1) = (  -0.500000   0.000000   0.500000 )  
               a(2) = (   0.000000   0.500000   0.500000 )  
               a(3) = (  -0.500000   0.500000   0.000000 )  

     reciprocal axes: (cart. coord. in units 2 pi/alat)
               b(1) = ( -1.000000 -1.000000  1.000000 )  
               b(2) = (  1.000000  1.000000  1.000000 )  
               b(3) = ( -1.000000  1.000000 -1.000000 )  


     PseudoPot. # 1 for Pb read from file:
     /home/elena/qe-6.7/pseudo/Pb.pbe-dn-rrkjus_psl.1.0.0.UPF
     MD5 check sum: 1cf8f5e18580e6a90a35f98a53d336de
     Pseudo is Ultrasoft + core correction, Zval = 14.0
     Generated using "atomic" code by A. Dal Corso v.6.3
     Using radial grid of 1281 points,  6 beta functions with: 
                l(1) =   0
                l(2) =   0
                l(3) =   1
                l(4) =   1
                l(5) =   2
                l(6) =   2
     Q(r) pseudized with 0 coefficients 


     atomic species   valence    mass     pseudopotential
        Pb            14.00   207.20000     Pb( 1.00)

     48 Sym. Ops., with inversion, found



   Cartesian axes

     site n.     atom                  positions (alat units)
         1           Pb  tau(   1) = (   0.0000000   0.0000000   0.0000000  )

     number of k points=    16  Methfessel-Paxton smearing, width (Ry)=  0.0500
                       cart. coord. in units 2pi/alat
        k(    1) = (   0.0000000   0.0000000   0.0000000), wk =   0.0092593
        k(    2) = (  -0.1666667   0.1666667  -0.1666667), wk =   0.0740741
        k(    3) = (  -0.3333333   0.3333333  -0.3333333), wk =   0.0740741
        k(    4) = (   0.5000000  -0.5000000   0.5000000), wk =   0.0370370
        k(    5) = (   0.0000000   0.3333333   0.0000000), wk =   0.0555556
        k(    6) = (  -0.1666667   0.5000000  -0.1666667), wk =   0.2222222
        k(    7) = (   0.6666667  -0.3333333   0.6666667), wk =   0.2222222
        k(    8) = (   0.5000000  -0.1666667   0.5000000), wk =   0.2222222
        k(    9) = (   0.3333333   0.0000000   0.3333333), wk =   0.1111111
        k(   10) = (   0.0000000   0.6666667   0.0000000), wk =   0.0555556
        k(   11) = (   0.8333333  -0.1666667   0.8333333), wk =   0.2222222
        k(   12) = (   0.6666667  -0.0000000   0.6666667), wk =   0.1111111
        k(   13) = (   0.0000000  -1.0000000   0.0000000), wk =   0.0277778
        k(   14) = (   0.6666667  -0.3333333   1.0000000), wk =   0.2222222
        k(   15) = (   0.5000000  -0.1666667   0.8333333), wk =   0.2222222
        k(   16) = (  -0.3333333  -1.0000000   0.0000000), wk =   0.1111111

     Dense  grid:    43895 G-vectors     FFT dimensions: (  50,  50,  50)

     Smooth grid:    15593 G-vectors     FFT dimensions: (  36,  36,  36)

     Estimated max dynamical RAM per process >     160.72 MB

     Initial potential from superposition of free atoms

     starting charge   13.99765, renormalised to   14.00000
     Starting wfcs are    9 randomized atomic wfcs +    2 random wfcs

     total cpu time spent up to now is        2.2 secs

     Self-consistent Calculation

     iteration #  1     ecut=    70.00 Ry     beta= 0.70
     Davidson diagonalization with overlap
     ethr =  1.00E-02,  avg # of iterations =  4.2

     Threshold (ethr) on eigenvalues was too large:
     Diagonalizing with lowered threshold

     Davidson diagonalization with overlap
     ethr =  1.53E-05,  avg # of iterations =  3.6

     total cpu time spent up to now is        4.5 secs

     total energy              =    -135.42828957 Ry
     Harris-Foulkes estimate   =    -135.42954826 Ry
     estimated scf accuracy    <       0.00215226 Ry

     iteration #  2     ecut=    70.00 Ry     beta= 0.70
     Davidson diagonalization with overlap
     ethr =  1.54E-05,  avg # of iterations =  2.8

     total cpu time spent up to now is        5.8 secs

     total energy              =    -135.42871849 Ry
     Harris-Foulkes estimate   =    -135.42882422 Ry
     estimated scf accuracy    <       0.00019162 Ry

     iteration #  3     ecut=    70.00 Ry     beta= 0.70
     Davidson diagonalization with overlap
     ethr =  1.37E-06,  avg # of iterations =  2.1

     total cpu time spent up to now is        7.2 secs

     total energy              =    -135.42875778 Ry
     Harris-Foulkes estimate   =    -135.42875874 Ry
     estimated scf accuracy    <       0.00001001 Ry

     iteration #  4     ecut=    70.00 Ry     beta= 0.70
     Davidson diagonalization with overlap
     ethr =  7.15E-08,  avg # of iterations =  1.8

     total cpu time spent up to now is        8.2 secs

     total energy              =    -135.42875887 Ry
     Harris-Foulkes estimate   =    -135.42875881 Ry
     estimated scf accuracy    <       0.00000008 Ry

     iteration #  5     ecut=    70.00 Ry     beta= 0.70
     Davidson diagonalization with overlap
     ethr =  5.50E-10,  avg # of iterations =  2.4

     total cpu time spent up to now is        9.5 secs

     total energy              =    -135.42875889 Ry
     Harris-Foulkes estimate   =    -135.42875890 Ry
     estimated scf accuracy    <          7.1E-09 Ry

     iteration #  6     ecut=    70.00 Ry     beta= 0.70
     Davidson diagonalization with overlap
     ethr =  5.05E-11,  avg # of iterations =  2.0

     total cpu time spent up to now is       10.7 secs

     End of self-consistent calculation

          k = 0.0000 0.0000 0.0000 (  1917 PWs)   bands (ev):

    -5.2103  -5.2103  -5.2103  -5.0523  -5.0523  -0.1734  19.6510  19.6510
    19.6510  21.9825  23.7648

          k =-0.1667 0.1667-0.1667 (  1940 PWs)   bands (ev):

    -5.2145  -5.1771  -5.1771  -5.0462  -5.0462   0.3867  15.3610  19.0463
    19.0463  21.3679  24.9198

          k =-0.3333 0.3333-0.3333 (  1940 PWs)   bands (ev):

    -5.2352  -5.1817  -5.1817  -4.9599  -4.9599   2.0315  10.3130  18.1211
    18.1211  21.1226  22.8261

          k = 0.5000-0.5000 0.5000 (  1946 PWs)   bands (ev):

    -5.2509  -5.1995  -5.1995  -4.8996  -4.8996   3.7112   7.4547  17.7249
    17.7249  21.3923  21.7383

          k = 0.0000 0.3333 0.0000 (  1960 PWs)   bands (ev):

    -5.2579  -5.1275  -5.1275  -5.1052  -5.0179   0.5724  16.6032  17.3970
    17.3970  20.4387  21.9324

          k =-0.1667 0.5000-0.1667 (  1943 PWs)   bands (ev):

    -5.2690  -5.1590  -5.0984  -5.0446  -4.9449   1.8617  12.1438  16.2474
    16.3449  19.9451  22.4342

          k = 0.6667-0.3333 0.6667 (  1942 PWs)   bands (ev):

    -5.2522  -5.1710  -5.1248  -4.9825  -4.8951   3.8089   8.4187  14.6959
    16.3771  19.6497  24.6661

          k = 0.5000-0.1667 0.5000 (  1943 PWs)   bands (ev):

    -5.2149  -5.1810  -5.1283  -4.9730  -4.9531   3.1784   9.4403  14.0159
    17.5614  20.4447  23.9075

          k = 0.3333 0.0000 0.3333 (  1935 PWs)   bands (ev):

    -5.2110  -5.1687  -5.1173  -5.0854  -4.9830   1.3140  13.3453  14.9795
    19.2874  22.2811  23.0831

          k = 0.0000 0.6667 0.0000 (  1948 PWs)   bands (ev):

    -5.3521  -5.2317  -4.9524  -4.9524  -4.9479   2.7683  11.9548  14.9194
    14.9194  18.3385  19.1046

          k = 0.8333-0.1667 0.8333 (  1941 PWs)   bands (ev):

    -5.3366  -5.2377  -4.9742  -4.9369  -4.8826   4.4489   9.6676  12.3066
    14.6604  18.3330  21.3896

          k = 0.6667-0.0000 0.6667 (  1935 PWs)   bands (ev):

    -5.2768  -5.0985  -5.0435  -5.0175  -4.9421   4.7273   9.9817  10.2438
    15.6870  18.9689  26.1573

          k = 0.0000-1.0000 0.0000 (  1964 PWs)   bands (ev):

    -5.3988  -5.3026  -4.9128  -4.8602  -4.8602   5.2270   8.4341  13.9979
    13.9979  17.3937  18.6690

          k = 0.6667-0.3333 1.0000 (  1930 PWs)   bands (ev):

    -5.2464  -5.1941  -5.0820  -4.9572  -4.9429   3.3885  10.7984  12.6391
    15.0139  21.3631  22.3838

          k = 0.5000-0.1667 0.8333 (  1930 PWs)   bands (ev):

    -5.2186  -5.1723  -5.0677  -5.0217  -4.8979   4.7515   9.1171  11.8889
    13.9510  21.5817  23.5973

          k =-0.3333-1.0000 0.0000 (  1940 PWs)   bands (ev):

    -5.2753  -5.2337  -5.0070  -4.9722  -4.8601   5.3125   9.3520  11.7815
    12.4497  20.9709  21.8582

     the Fermi energy is    12.0475 ev

!    total energy              =    -135.42875890 Ry
     Harris-Foulkes estimate   =    -135.42875890 Ry
     estimated scf accuracy    <          3.7E-10 Ry

     The total energy is the sum of the following terms:

     one-electron contribution =     -31.47991023 Ry
     hartree contribution      =      26.12103251 Ry
     xc contribution           =     -32.62739259 Ry
     ewald contribution        =     -97.43857717 Ry
     smearing contrib. (-TS)   =      -0.00391142 Ry

     convergence has been achieved in   6 iterations

     Writing output data file Pb.save/

     init_run     :      1.30s CPU      1.37s WALL (       1 calls)
     electrons    :      7.93s CPU      8.50s WALL (       1 calls)

     Called by init_run:
     wfcinit      :      0.26s CPU      0.27s WALL (       1 calls)
     potinit      :      0.08s CPU      0.08s WALL (       1 calls)
     hinit0       :      0.86s CPU      0.86s WALL (       1 calls)

     Called by electrons:
     c_bands      :      5.49s CPU      5.51s WALL (       7 calls)
     sum_band     :      1.54s CPU      1.83s WALL (       7 calls)
     v_of_rho     :      0.40s CPU      0.41s WALL (       7 calls)
     newd         :      0.57s CPU      0.87s WALL (       7 calls)
     mix_rho      :      0.03s CPU      0.04s WALL (       7 calls)

     Called by c_bands:
     init_us_2    :      0.12s CPU      0.12s WALL (     240 calls)
     cegterg      :      5.21s CPU      5.22s WALL (     112 calls)

     Called by sum_band:
     sum_band:bec :      0.00s CPU      0.00s WALL (     112 calls)
     addusdens    :      0.66s CPU      0.95s WALL (       7 calls)

     Called by *egterg:
     h_psi        :      4.18s CPU      4.21s WALL (     428 calls)
     s_psi        :      0.21s CPU      0.21s WALL (     428 calls)
     g_psi        :      0.03s CPU      0.03s WALL (     300 calls)
     cdiaghg      :      0.09s CPU      0.09s WALL (     396 calls)

     Called by h_psi:
     h_psi:pot    :      4.17s CPU      4.19s WALL (     428 calls)
     h_psi:calbec :      0.23s CPU      0.23s WALL (     428 calls)
     vloc_psi     :      3.72s CPU      3.75s WALL (     428 calls)
     add_vuspsi   :      0.21s CPU      0.21s WALL (     428 calls)

     General routines
     calbec       :      0.30s CPU      0.31s WALL (     540 calls)
     fft          :      0.18s CPU      0.19s WALL (      90 calls)
     ffts         :      0.02s CPU      0.02s WALL (      14 calls)
     fftw         :      3.86s CPU      3.88s WALL (    7980 calls)
     interpolate  :      0.03s CPU      0.03s WALL (       7 calls)

     Parallel routines

     PWSCF        :     10.04s CPU     10.68s WALL


   This run was terminated on:  19:52:58  30Jun2021            

=------------------------------------------------------------------------------=
   JOB DONE.
=------------------------------------------------------------------------------=
