
     Program PWSCF v.6.4.1 starts on 30Jun2021 at 19:52:36 

     This program is part of the open-source Quantum ESPRESSO suite
     for quantum simulation of materials; please cite
         "P. Giannozzi et al., J. Phys.:Condens. Matter 21 395502 (2009);
         "P. Giannozzi et al., J. Phys.:Condens. Matter 29 465901 (2017);
          URL http://www.quantum-espresso.org", 
     in publications or presentations arising from this work. More details at
     http://www.quantum-espresso.org/quote

     Parallel version (MPI), running on     1 processors

     MPI processes distributed on     1 nodes
     Waiting for input...
     Reading input from standard input

     Current dimensions of program PWSCF are:
     Max number of different atomic species (ntypx) = 10
     Max number of k-points (npk) =  40000
     Max angular momentum in pseudopotentials (lmaxx) =  3
               file Pb.pbe-dn-rrkjus_psl.1.0.0.UPF: wavefunction(s)  6S 5D renormalized

     Subspace diagonalization in iterative solution of the eigenvalue problem:
     a serial algorithm will be used


     G-vector sticks info
     --------------------
     sticks:   dense  smooth     PW     G-vecs:    dense   smooth      PW
     Sum        1639     823    253                43895    15593    2637


     Title: 
     Lead                                                                       


     bravais-lattice index     =            2
     lattice parameter (alat)  =       9.2226  a.u.
     unit-cell volume          =     196.1075 (a.u.)^3
     number of atoms/cell      =            1
     number of atomic types    =            1
     number of electrons       =        14.00
     number of Kohn-Sham states=           11
     kinetic-energy cutoff     =      70.0000  Ry
     charge density cutoff     =     560.0000  Ry
     convergence threshold     =      1.0E-09
     mixing beta               =       0.7000
     number of iterations used =            8  plain     mixing
     Exchange-correlation      = PBE ( 1  4  3  4 0 0)

     celldm(1)=   9.222558  celldm(2)=   0.000000  celldm(3)=   0.000000
     celldm(4)=   0.000000  celldm(5)=   0.000000  celldm(6)=   0.000000

     crystal axes: (cart. coord. in units of alat)
               a(1) = (  -0.500000   0.000000   0.500000 )  
               a(2) = (   0.000000   0.500000   0.500000 )  
               a(3) = (  -0.500000   0.500000   0.000000 )  

     reciprocal axes: (cart. coord. in units 2 pi/alat)
               b(1) = ( -1.000000 -1.000000  1.000000 )  
               b(2) = (  1.000000  1.000000  1.000000 )  
               b(3) = ( -1.000000  1.000000 -1.000000 )  


     PseudoPot. # 1 for Pb read from file:
     /home/elena/qe-6.7/pseudo/Pb.pbe-dn-rrkjus_psl.1.0.0.UPF
     MD5 check sum: 1cf8f5e18580e6a90a35f98a53d336de
     Pseudo is Ultrasoft + core correction, Zval = 14.0
     Generated using "atomic" code by A. Dal Corso v.6.3
     Using radial grid of 1281 points,  6 beta functions with: 
                l(1) =   0
                l(2) =   0
                l(3) =   1
                l(4) =   1
                l(5) =   2
                l(6) =   2
     Q(r) pseudized with 0 coefficients 


     atomic species   valence    mass     pseudopotential
        Pb            14.00   207.20000     Pb( 1.00)

     48 Sym. Ops., with inversion, found



   Cartesian axes

     site n.     atom                  positions (alat units)
         1           Pb  tau(   1) = (   0.0000000   0.0000000   0.0000000  )

     number of k points=    16  Methfessel-Paxton smearing, width (Ry)=  0.0600
                       cart. coord. in units 2pi/alat
        k(    1) = (   0.0000000   0.0000000   0.0000000), wk =   0.0092593
        k(    2) = (  -0.1666667   0.1666667  -0.1666667), wk =   0.0740741
        k(    3) = (  -0.3333333   0.3333333  -0.3333333), wk =   0.0740741
        k(    4) = (   0.5000000  -0.5000000   0.5000000), wk =   0.0370370
        k(    5) = (   0.0000000   0.3333333   0.0000000), wk =   0.0555556
        k(    6) = (  -0.1666667   0.5000000  -0.1666667), wk =   0.2222222
        k(    7) = (   0.6666667  -0.3333333   0.6666667), wk =   0.2222222
        k(    8) = (   0.5000000  -0.1666667   0.5000000), wk =   0.2222222
        k(    9) = (   0.3333333   0.0000000   0.3333333), wk =   0.1111111
        k(   10) = (   0.0000000   0.6666667   0.0000000), wk =   0.0555556
        k(   11) = (   0.8333333  -0.1666667   0.8333333), wk =   0.2222222
        k(   12) = (   0.6666667  -0.0000000   0.6666667), wk =   0.1111111
        k(   13) = (   0.0000000  -1.0000000   0.0000000), wk =   0.0277778
        k(   14) = (   0.6666667  -0.3333333   1.0000000), wk =   0.2222222
        k(   15) = (   0.5000000  -0.1666667   0.8333333), wk =   0.2222222
        k(   16) = (  -0.3333333  -1.0000000   0.0000000), wk =   0.1111111

     Dense  grid:    43895 G-vectors     FFT dimensions: (  50,  50,  50)

     Smooth grid:    15593 G-vectors     FFT dimensions: (  36,  36,  36)

     Estimated max dynamical RAM per process >     160.72 MB

     Initial potential from superposition of free atoms

     starting charge   13.99765, renormalised to   14.00000
     Starting wfcs are    9 randomized atomic wfcs +    2 random wfcs

     total cpu time spent up to now is        2.0 secs

     Self-consistent Calculation

     iteration #  1     ecut=    70.00 Ry     beta= 0.70
     Davidson diagonalization with overlap
     ethr =  1.00E-02,  avg # of iterations =  4.2

     Threshold (ethr) on eigenvalues was too large:
     Diagonalizing with lowered threshold

     Davidson diagonalization with overlap
     ethr =  1.53E-05,  avg # of iterations =  3.6

     total cpu time spent up to now is        4.4 secs

     total energy              =    -135.42908888 Ry
     Harris-Foulkes estimate   =    -135.43036505 Ry
     estimated scf accuracy    <       0.00215958 Ry

     iteration #  2     ecut=    70.00 Ry     beta= 0.70
     Davidson diagonalization with overlap
     ethr =  1.54E-05,  avg # of iterations =  2.8

     total cpu time spent up to now is        5.8 secs

     total energy              =    -135.42952234 Ry
     Harris-Foulkes estimate   =    -135.42962940 Ry
     estimated scf accuracy    <       0.00019181 Ry

     iteration #  3     ecut=    70.00 Ry     beta= 0.70
     Davidson diagonalization with overlap
     ethr =  1.37E-06,  avg # of iterations =  2.1

     total cpu time spent up to now is        7.2 secs

     total energy              =    -135.42956188 Ry
     Harris-Foulkes estimate   =    -135.42956285 Ry
     estimated scf accuracy    <       0.00000972 Ry

     iteration #  4     ecut=    70.00 Ry     beta= 0.70
     Davidson diagonalization with overlap
     ethr =  6.94E-08,  avg # of iterations =  1.8

     total cpu time spent up to now is        8.4 secs

     total energy              =    -135.42956297 Ry
     Harris-Foulkes estimate   =    -135.42956291 Ry
     estimated scf accuracy    <       0.00000008 Ry

     iteration #  5     ecut=    70.00 Ry     beta= 0.70
     Davidson diagonalization with overlap
     ethr =  5.71E-10,  avg # of iterations =  2.4

     total cpu time spent up to now is        9.7 secs

     total energy              =    -135.42956299 Ry
     Harris-Foulkes estimate   =    -135.42956300 Ry
     estimated scf accuracy    <          8.2E-09 Ry

     iteration #  6     ecut=    70.00 Ry     beta= 0.70
     Davidson diagonalization with overlap
     ethr =  5.83E-11,  avg # of iterations =  2.0

     total cpu time spent up to now is       11.1 secs

     End of self-consistent calculation

          k = 0.0000 0.0000 0.0000 (  1917 PWs)   bands (ev):

    -5.2129  -5.2129  -5.2129  -5.0546  -5.0546  -0.1745  19.6501  19.6501
    19.6501  21.9820  23.7626

          k =-0.1667 0.1667-0.1667 (  1940 PWs)   bands (ev):

    -5.2171  -5.1798  -5.1798  -5.0485  -5.0485   0.3856  15.3600  19.0453
    19.0453  21.3672  24.9185

          k =-0.3333 0.3333-0.3333 (  1940 PWs)   bands (ev):

    -5.2378  -5.1842  -5.1842  -4.9624  -4.9624   2.0303  10.3120  18.1201
    18.1201  21.1217  22.8251

          k = 0.5000-0.5000 0.5000 (  1946 PWs)   bands (ev):

    -5.2535  -5.2019  -5.2019  -4.9021  -4.9021   3.7099   7.4539  17.7238
    17.7238  21.3912  21.7374

          k = 0.0000 0.3333 0.0000 (  1960 PWs)   bands (ev):

    -5.2606  -5.1302  -5.1302  -5.1075  -5.0202   0.5713  16.6019  17.3961
    17.3961  20.4381  21.9313

          k =-0.1667 0.5000-0.1667 (  1943 PWs)   bands (ev):

    -5.2717  -5.1613  -5.1009  -5.0472  -4.9474   1.8605  12.1428  16.2464
    16.3440  19.9441  22.4334

          k = 0.6667-0.3333 0.6667 (  1942 PWs)   bands (ev):

    -5.2548  -5.1735  -5.1272  -4.9851  -4.8976   3.8076   8.4178  14.6950
    16.3762  19.6487  24.6651

          k = 0.5000-0.1667 0.5000 (  1943 PWs)   bands (ev):

    -5.2174  -5.1835  -5.1307  -4.9756  -4.9556   3.1772   9.4393  14.0150
    17.5604  20.4437  23.9066

          k = 0.3333 0.0000 0.3333 (  1935 PWs)   bands (ev):

    -5.2137  -5.1712  -5.1200  -5.0877  -4.9854   1.3129  13.3442  14.9787
    19.2863  22.2801  23.0826

          k = 0.0000 0.6667 0.0000 (  1948 PWs)   bands (ev):

    -5.3547  -5.2339  -4.9551  -4.9551  -4.9502   2.7671  11.9538  14.9185
    14.9185  18.3373  19.1040

          k = 0.8333-0.1667 0.8333 (  1941 PWs)   bands (ev):

    -5.3392  -5.2400  -4.9766  -4.9396  -4.8852   4.4476   9.6667  12.3057
    14.6596  18.3319  21.3888

          k = 0.6667-0.0000 0.6667 (  1935 PWs)   bands (ev):

    -5.2793  -5.1010  -5.0461  -5.0198  -4.9447   4.7259   9.9808  10.2431
    15.6861  18.9679  26.1564

          k = 0.0000-1.0000 0.0000 (  1964 PWs)   bands (ev):

    -5.4014  -5.3048  -4.9151  -4.8629  -4.8629   5.2256   8.4334  13.9970
    13.9970  17.3923  18.6683

          k = 0.6667-0.3333 1.0000 (  1930 PWs)   bands (ev):

    -5.2490  -5.1964  -5.0844  -4.9598  -4.9454   3.3873  10.7974  12.6383
    15.0129  21.3619  22.3832

          k = 0.5000-0.1667 0.8333 (  1930 PWs)   bands (ev):

    -5.2210  -5.1750  -5.0702  -5.0240  -4.9006   4.7501   9.1163  11.8881
    13.9500  21.5805  23.5966

          k =-0.3333-1.0000 0.0000 (  1940 PWs)   bands (ev):

    -5.2779  -5.2359  -5.0097  -4.9744  -4.8629   5.3110   9.3512  11.7807
    12.4487  20.9696  21.8575

     the Fermi energy is    12.0285 ev

!    total energy              =    -135.42956300 Ry
     Harris-Foulkes estimate   =    -135.42956300 Ry
     estimated scf accuracy    <          4.1E-10 Ry

     The total energy is the sum of the following terms:

     one-electron contribution =     -31.47777542 Ry
     hartree contribution      =      26.11877103 Ry
     xc contribution           =     -32.62711212 Ry
     ewald contribution        =     -97.43857717 Ry
     smearing contrib. (-TS)   =      -0.00486933 Ry

     convergence has been achieved in   6 iterations

     Writing output data file Pb.save/

     init_run     :      1.22s CPU      1.27s WALL (       1 calls)
     electrons    :      8.46s CPU      9.06s WALL (       1 calls)

     Called by init_run:
     wfcinit      :      0.26s CPU      0.27s WALL (       1 calls)
     potinit      :      0.07s CPU      0.08s WALL (       1 calls)
     hinit0       :      0.77s CPU      0.77s WALL (       1 calls)

     Called by electrons:
     c_bands      :      5.80s CPU      5.83s WALL (       7 calls)
     sum_band     :      1.64s CPU      2.00s WALL (       7 calls)
     v_of_rho     :      0.43s CPU      0.44s WALL (       7 calls)
     newd         :      0.66s CPU      0.90s WALL (       7 calls)
     mix_rho      :      0.04s CPU      0.04s WALL (       7 calls)

     Called by c_bands:
     init_us_2    :      0.13s CPU      0.13s WALL (     240 calls)
     cegterg      :      5.50s CPU      5.53s WALL (     112 calls)

     Called by sum_band:
     sum_band:bec :      0.00s CPU      0.00s WALL (     112 calls)
     addusdens    :      0.70s CPU      1.05s WALL (       7 calls)

     Called by *egterg:
     h_psi        :      4.41s CPU      4.44s WALL (     428 calls)
     s_psi        :      0.22s CPU      0.22s WALL (     428 calls)
     g_psi        :      0.03s CPU      0.03s WALL (     300 calls)
     cdiaghg      :      0.10s CPU      0.10s WALL (     396 calls)

     Called by h_psi:
     h_psi:pot    :      4.40s CPU      4.42s WALL (     428 calls)
     h_psi:calbec :      0.24s CPU      0.25s WALL (     428 calls)
     vloc_psi     :      3.93s CPU      3.95s WALL (     428 calls)
     add_vuspsi   :      0.22s CPU      0.22s WALL (     428 calls)

     General routines
     calbec       :      0.33s CPU      0.33s WALL (     540 calls)
     fft          :      0.20s CPU      0.20s WALL (      90 calls)
     ffts         :      0.02s CPU      0.02s WALL (      14 calls)
     fftw         :      4.05s CPU      4.07s WALL (    7992 calls)
     interpolate  :      0.03s CPU      0.03s WALL (       7 calls)

     Parallel routines

     PWSCF        :     10.47s CPU     11.12s WALL


   This run was terminated on:  19:52:47  30Jun2021            

=------------------------------------------------------------------------------=
   JOB DONE.
=------------------------------------------------------------------------------=
