
     Program PWSCF v.6.4.1 starts on 30Jun2021 at 19:51:51 

     This program is part of the open-source Quantum ESPRESSO suite
     for quantum simulation of materials; please cite
         "P. Giannozzi et al., J. Phys.:Condens. Matter 21 395502 (2009);
         "P. Giannozzi et al., J. Phys.:Condens. Matter 29 465901 (2017);
          URL http://www.quantum-espresso.org", 
     in publications or presentations arising from this work. More details at
     http://www.quantum-espresso.org/quote

     Parallel version (MPI), running on     1 processors

     MPI processes distributed on     1 nodes
     Waiting for input...
     Reading input from standard input

     Current dimensions of program PWSCF are:
     Max number of different atomic species (ntypx) = 10
     Max number of k-points (npk) =  40000
     Max angular momentum in pseudopotentials (lmaxx) =  3
               file Pb.pbe-dn-rrkjus_psl.1.0.0.UPF: wavefunction(s)  6S 5D renormalized

     Subspace diagonalization in iterative solution of the eigenvalue problem:
     a serial algorithm will be used


     G-vector sticks info
     --------------------
     sticks:   dense  smooth     PW     G-vecs:    dense   smooth      PW
     Sum        1639     823    253                43895    15593    2637


     Title: 
     Lead                                                                       


     bravais-lattice index     =            2
     lattice parameter (alat)  =       9.2226  a.u.
     unit-cell volume          =     196.1075 (a.u.)^3
     number of atoms/cell      =            1
     number of atomic types    =            1
     number of electrons       =        14.00
     number of Kohn-Sham states=           11
     kinetic-energy cutoff     =      70.0000  Ry
     charge density cutoff     =     560.0000  Ry
     convergence threshold     =      1.0E-09
     mixing beta               =       0.7000
     number of iterations used =            8  plain     mixing
     Exchange-correlation      = PBE ( 1  4  3  4 0 0)

     celldm(1)=   9.222558  celldm(2)=   0.000000  celldm(3)=   0.000000
     celldm(4)=   0.000000  celldm(5)=   0.000000  celldm(6)=   0.000000

     crystal axes: (cart. coord. in units of alat)
               a(1) = (  -0.500000   0.000000   0.500000 )  
               a(2) = (   0.000000   0.500000   0.500000 )  
               a(3) = (  -0.500000   0.500000   0.000000 )  

     reciprocal axes: (cart. coord. in units 2 pi/alat)
               b(1) = ( -1.000000 -1.000000  1.000000 )  
               b(2) = (  1.000000  1.000000  1.000000 )  
               b(3) = ( -1.000000  1.000000 -1.000000 )  


     PseudoPot. # 1 for Pb read from file:
     /home/elena/qe-6.7/pseudo/Pb.pbe-dn-rrkjus_psl.1.0.0.UPF
     MD5 check sum: 1cf8f5e18580e6a90a35f98a53d336de
     Pseudo is Ultrasoft + core correction, Zval = 14.0
     Generated using "atomic" code by A. Dal Corso v.6.3
     Using radial grid of 1281 points,  6 beta functions with: 
                l(1) =   0
                l(2) =   0
                l(3) =   1
                l(4) =   1
                l(5) =   2
                l(6) =   2
     Q(r) pseudized with 0 coefficients 


     atomic species   valence    mass     pseudopotential
        Pb            14.00   207.20000     Pb( 1.00)

     48 Sym. Ops., with inversion, found



   Cartesian axes

     site n.     atom                  positions (alat units)
         1           Pb  tau(   1) = (   0.0000000   0.0000000   0.0000000  )

     number of k points=    16  Methfessel-Paxton smearing, width (Ry)=  0.1000
                       cart. coord. in units 2pi/alat
        k(    1) = (   0.0000000   0.0000000   0.0000000), wk =   0.0092593
        k(    2) = (  -0.1666667   0.1666667  -0.1666667), wk =   0.0740741
        k(    3) = (  -0.3333333   0.3333333  -0.3333333), wk =   0.0740741
        k(    4) = (   0.5000000  -0.5000000   0.5000000), wk =   0.0370370
        k(    5) = (   0.0000000   0.3333333   0.0000000), wk =   0.0555556
        k(    6) = (  -0.1666667   0.5000000  -0.1666667), wk =   0.2222222
        k(    7) = (   0.6666667  -0.3333333   0.6666667), wk =   0.2222222
        k(    8) = (   0.5000000  -0.1666667   0.5000000), wk =   0.2222222
        k(    9) = (   0.3333333   0.0000000   0.3333333), wk =   0.1111111
        k(   10) = (   0.0000000   0.6666667   0.0000000), wk =   0.0555556
        k(   11) = (   0.8333333  -0.1666667   0.8333333), wk =   0.2222222
        k(   12) = (   0.6666667  -0.0000000   0.6666667), wk =   0.1111111
        k(   13) = (   0.0000000  -1.0000000   0.0000000), wk =   0.0277778
        k(   14) = (   0.6666667  -0.3333333   1.0000000), wk =   0.2222222
        k(   15) = (   0.5000000  -0.1666667   0.8333333), wk =   0.2222222
        k(   16) = (  -0.3333333  -1.0000000   0.0000000), wk =   0.1111111

     Dense  grid:    43895 G-vectors     FFT dimensions: (  50,  50,  50)

     Smooth grid:    15593 G-vectors     FFT dimensions: (  36,  36,  36)

     Estimated max dynamical RAM per process >     160.72 MB

     Initial potential from superposition of free atoms

     starting charge   13.99765, renormalised to   14.00000
     Starting wfcs are    9 randomized atomic wfcs +    2 random wfcs

     total cpu time spent up to now is        2.1 secs

     Self-consistent Calculation

     iteration #  1     ecut=    70.00 Ry     beta= 0.70
     Davidson diagonalization with overlap
     ethr =  1.00E-02,  avg # of iterations =  4.2

     Threshold (ethr) on eigenvalues was too large:
     Diagonalizing with lowered threshold

     Davidson diagonalization with overlap
     ethr =  1.59E-05,  avg # of iterations =  3.6

     total cpu time spent up to now is        4.4 secs

     total energy              =    -135.43169345 Ry
     Harris-Foulkes estimate   =    -135.43302974 Ry
     estimated scf accuracy    <       0.00223561 Ry

     iteration #  2     ecut=    70.00 Ry     beta= 0.70
     Davidson diagonalization with overlap
     ethr =  1.60E-05,  avg # of iterations =  2.8

     total cpu time spent up to now is        5.7 secs

     total energy              =    -135.43214493 Ry
     Harris-Foulkes estimate   =    -135.43225616 Ry
     estimated scf accuracy    <       0.00019674 Ry

     iteration #  3     ecut=    70.00 Ry     beta= 0.70
     Davidson diagonalization with overlap
     ethr =  1.41E-06,  avg # of iterations =  2.1

     total cpu time spent up to now is        6.9 secs

     total energy              =    -135.43218563 Ry
     Harris-Foulkes estimate   =    -135.43218667 Ry
     estimated scf accuracy    <       0.00000959 Ry

     iteration #  4     ecut=    70.00 Ry     beta= 0.70
     Davidson diagonalization with overlap
     ethr =  6.85E-08,  avg # of iterations =  1.8

     total cpu time spent up to now is        7.9 secs

     total energy              =    -135.43218674 Ry
     Harris-Foulkes estimate   =    -135.43218668 Ry
     estimated scf accuracy    <       0.00000008 Ry

     iteration #  5     ecut=    70.00 Ry     beta= 0.70
     Davidson diagonalization with overlap
     ethr =  5.99E-10,  avg # of iterations =  2.3

     total cpu time spent up to now is        9.2 secs

     total energy              =    -135.43218677 Ry
     Harris-Foulkes estimate   =    -135.43218678 Ry
     estimated scf accuracy    <       0.00000001 Ry

     iteration #  6     ecut=    70.00 Ry     beta= 0.70
     Davidson diagonalization with overlap
     ethr =  7.20E-11,  avg # of iterations =  2.0

     total cpu time spent up to now is       10.4 secs

     End of self-consistent calculation

          k = 0.0000 0.0000 0.0000 (  1917 PWs)   bands (ev):

    -5.2219  -5.2219  -5.2219  -5.0630  -5.0630  -0.1777  19.6472  19.6472
    19.6472  21.9801  23.7574

          k =-0.1667 0.1667-0.1667 (  1940 PWs)   bands (ev):

    -5.2261  -5.1887  -5.1887  -5.0570  -5.0570   0.3823  15.3569  19.0423
    19.0423  21.3647  24.9155

          k =-0.3333 0.3333-0.3333 (  1940 PWs)   bands (ev):

    -5.2467  -5.1928  -5.1928  -4.9711  -4.9711   2.0268  10.3092  18.1171
    18.1171  21.1189  22.8222

          k = 0.5000-0.5000 0.5000 (  1946 PWs)   bands (ev):

    -5.2624  -5.2105  -5.2105  -4.9110  -4.9110   3.7057   7.4517  17.7208
    17.7208  21.3888  21.7340

          k = 0.0000 0.3333 0.0000 (  1960 PWs)   bands (ev):

    -5.2695  -5.1392  -5.1392  -5.1158  -5.0286   0.5680  16.5982  17.3934
    17.3934  20.4359  21.9288

          k =-0.1667 0.5000-0.1667 (  1943 PWs)   bands (ev):

    -5.2805  -5.1697  -5.1096  -5.0561  -4.9561   1.8571  12.1398  16.2433
    16.3413  19.9416  22.4309

          k = 0.6667-0.3333 0.6667 (  1942 PWs)   bands (ev):

    -5.2635  -5.1822  -5.1358  -4.9939  -4.9065   3.8036   8.4154  14.6920
    16.3734  19.6460  24.6621

          k = 0.5000-0.1667 0.5000 (  1943 PWs)   bands (ev):

    -5.2261  -5.1924  -5.1393  -4.9844  -4.9643   3.1734   9.4367  14.0122
    17.5575  20.4410  23.9039

          k = 0.3333 0.0000 0.3333 (  1935 PWs)   bands (ev):

    -5.2226  -5.1799  -5.1290  -5.0960  -4.9941   1.3095  13.3410  14.9761
    19.2830  22.2775  23.0804

          k = 0.0000 0.6667 0.0000 (  1948 PWs)   bands (ev):

    -5.3635  -5.2421  -4.9642  -4.9642  -4.9587   2.7635  11.9505  14.9160
    14.9160  18.3343  19.1016

          k = 0.8333-0.1667 0.8333 (  1941 PWs)   bands (ev):

    -5.3479  -5.2482  -4.9852  -4.9487  -4.8942   4.4436   9.6640  12.3032
    14.6570  18.3290  21.3862

          k = 0.6667-0.0000 0.6667 (  1935 PWs)   bands (ev):

    -5.2879  -5.1095  -5.0552  -5.0282  -4.9539   4.7217   9.9782  10.2407
    15.6834  18.9651  26.1539

          k = 0.0000-1.0000 0.0000 (  1964 PWs)   bands (ev):

    -5.4102  -5.3129  -4.9236  -4.8721  -4.8721   5.2211   8.4312  13.9946
    13.9946  17.3890  18.6659

          k = 0.6667-0.3333 1.0000 (  1930 PWs)   bands (ev):

    -5.2579  -5.2047  -5.0931  -4.9689  -4.9541   3.3836  10.7944  12.6357
    15.0102  21.3588  22.3809

          k = 0.5000-0.1667 0.8333 (  1930 PWs)   bands (ev):

    -5.2294  -5.1838  -5.0790  -5.0325  -4.9097   4.7458   9.1140  11.8854
    13.9474  21.5776  23.5941

          k =-0.3333-1.0000 0.0000 (  1940 PWs)   bands (ev):

    -5.2868  -5.2442  -5.0187  -4.9829  -4.8720   5.3066   9.3489  11.7783
    12.4461  20.9664  21.8552

     the Fermi energy is    11.9540 ev

!    total energy              =    -135.43218677 Ry
     Harris-Foulkes estimate   =    -135.43218677 Ry
     estimated scf accuracy    <          4.6E-10 Ry

     The total energy is the sum of the following terms:

     one-electron contribution =     -31.47444930 Ry
     hartree contribution      =      26.11102659 Ry
     xc contribution           =     -32.62607548 Ry
     ewald contribution        =     -97.43857717 Ry
     smearing contrib. (-TS)   =      -0.00411141 Ry

     convergence has been achieved in   6 iterations

     Writing output data file Pb.save/

     init_run     :      1.22s CPU      1.27s WALL (       1 calls)
     electrons    :      7.75s CPU      8.30s WALL (       1 calls)

     Called by init_run:
     wfcinit      :      0.26s CPU      0.27s WALL (       1 calls)
     potinit      :      0.07s CPU      0.08s WALL (       1 calls)
     hinit0       :      0.77s CPU      0.77s WALL (       1 calls)

     Called by electrons:
     c_bands      :      5.29s CPU      5.31s WALL (       7 calls)
     sum_band     :      1.55s CPU      1.84s WALL (       7 calls)
     v_of_rho     :      0.39s CPU      0.41s WALL (       7 calls)
     newd         :      0.60s CPU      0.85s WALL (       7 calls)
     mix_rho      :      0.04s CPU      0.04s WALL (       7 calls)

     Called by c_bands:
     init_us_2    :      0.12s CPU      0.12s WALL (     240 calls)
     cegterg      :      5.02s CPU      5.04s WALL (     112 calls)

     Called by sum_band:
     sum_band:bec :      0.00s CPU      0.00s WALL (     112 calls)
     addusdens    :      0.67s CPU      0.95s WALL (       7 calls)

     Called by *egterg:
     h_psi        :      4.04s CPU      4.06s WALL (     427 calls)
     s_psi        :      0.20s CPU      0.20s WALL (     427 calls)
     g_psi        :      0.03s CPU      0.03s WALL (     299 calls)
     cdiaghg      :      0.09s CPU      0.09s WALL (     395 calls)

     Called by h_psi:
     h_psi:pot    :      4.03s CPU      4.04s WALL (     427 calls)
     h_psi:calbec :      0.22s CPU      0.22s WALL (     427 calls)
     vloc_psi     :      3.60s CPU      3.61s WALL (     427 calls)
     add_vuspsi   :      0.21s CPU      0.21s WALL (     427 calls)

     General routines
     calbec       :      0.30s CPU      0.30s WALL (     539 calls)
     fft          :      0.19s CPU      0.19s WALL (      90 calls)
     ffts         :      0.02s CPU      0.02s WALL (      14 calls)
     fftw         :      3.75s CPU      3.76s WALL (    7990 calls)
     interpolate  :      0.03s CPU      0.03s WALL (       7 calls)

     Parallel routines

     PWSCF        :      9.79s CPU     10.39s WALL


   This run was terminated on:  19:52: 1  30Jun2021            

=------------------------------------------------------------------------------=
   JOB DONE.
=------------------------------------------------------------------------------=
