
     Program PWSCF v.6.4.1 starts on 30Jun2021 at 19:53:22 

     This program is part of the open-source Quantum ESPRESSO suite
     for quantum simulation of materials; please cite
         "P. Giannozzi et al., J. Phys.:Condens. Matter 21 395502 (2009);
         "P. Giannozzi et al., J. Phys.:Condens. Matter 29 465901 (2017);
          URL http://www.quantum-espresso.org", 
     in publications or presentations arising from this work. More details at
     http://www.quantum-espresso.org/quote

     Parallel version (MPI), running on     1 processors

     MPI processes distributed on     1 nodes
     Waiting for input...
     Reading input from standard input

     Current dimensions of program PWSCF are:
     Max number of different atomic species (ntypx) = 10
     Max number of k-points (npk) =  40000
     Max angular momentum in pseudopotentials (lmaxx) =  3
               file Pb.pbe-dn-rrkjus_psl.1.0.0.UPF: wavefunction(s)  6S 5D renormalized

     Subspace diagonalization in iterative solution of the eigenvalue problem:
     a serial algorithm will be used


     G-vector sticks info
     --------------------
     sticks:   dense  smooth     PW     G-vecs:    dense   smooth      PW
     Sum        1639     823    253                43895    15593    2637


     Title: 
     Lead                                                                       


     bravais-lattice index     =            2
     lattice parameter (alat)  =       9.2226  a.u.
     unit-cell volume          =     196.1075 (a.u.)^3
     number of atoms/cell      =            1
     number of atomic types    =            1
     number of electrons       =        14.00
     number of Kohn-Sham states=           11
     kinetic-energy cutoff     =      70.0000  Ry
     charge density cutoff     =     560.0000  Ry
     convergence threshold     =      1.0E-09
     mixing beta               =       0.7000
     number of iterations used =            8  plain     mixing
     Exchange-correlation      = PBE ( 1  4  3  4 0 0)

     celldm(1)=   9.222558  celldm(2)=   0.000000  celldm(3)=   0.000000
     celldm(4)=   0.000000  celldm(5)=   0.000000  celldm(6)=   0.000000

     crystal axes: (cart. coord. in units of alat)
               a(1) = (  -0.500000   0.000000   0.500000 )  
               a(2) = (   0.000000   0.500000   0.500000 )  
               a(3) = (  -0.500000   0.500000   0.000000 )  

     reciprocal axes: (cart. coord. in units 2 pi/alat)
               b(1) = ( -1.000000 -1.000000  1.000000 )  
               b(2) = (  1.000000  1.000000  1.000000 )  
               b(3) = ( -1.000000  1.000000 -1.000000 )  


     PseudoPot. # 1 for Pb read from file:
     /home/elena/qe-6.7/pseudo/Pb.pbe-dn-rrkjus_psl.1.0.0.UPF
     MD5 check sum: 1cf8f5e18580e6a90a35f98a53d336de
     Pseudo is Ultrasoft + core correction, Zval = 14.0
     Generated using "atomic" code by A. Dal Corso v.6.3
     Using radial grid of 1281 points,  6 beta functions with: 
                l(1) =   0
                l(2) =   0
                l(3) =   1
                l(4) =   1
                l(5) =   2
                l(6) =   2
     Q(r) pseudized with 0 coefficients 


     atomic species   valence    mass     pseudopotential
        Pb            14.00   207.20000     Pb( 1.00)

     48 Sym. Ops., with inversion, found



   Cartesian axes

     site n.     atom                  positions (alat units)
         1           Pb  tau(   1) = (   0.0000000   0.0000000   0.0000000  )

     number of k points=    16  Methfessel-Paxton smearing, width (Ry)=  0.0200
                       cart. coord. in units 2pi/alat
        k(    1) = (   0.0000000   0.0000000   0.0000000), wk =   0.0092593
        k(    2) = (  -0.1666667   0.1666667  -0.1666667), wk =   0.0740741
        k(    3) = (  -0.3333333   0.3333333  -0.3333333), wk =   0.0740741
        k(    4) = (   0.5000000  -0.5000000   0.5000000), wk =   0.0370370
        k(    5) = (   0.0000000   0.3333333   0.0000000), wk =   0.0555556
        k(    6) = (  -0.1666667   0.5000000  -0.1666667), wk =   0.2222222
        k(    7) = (   0.6666667  -0.3333333   0.6666667), wk =   0.2222222
        k(    8) = (   0.5000000  -0.1666667   0.5000000), wk =   0.2222222
        k(    9) = (   0.3333333   0.0000000   0.3333333), wk =   0.1111111
        k(   10) = (   0.0000000   0.6666667   0.0000000), wk =   0.0555556
        k(   11) = (   0.8333333  -0.1666667   0.8333333), wk =   0.2222222
        k(   12) = (   0.6666667  -0.0000000   0.6666667), wk =   0.1111111
        k(   13) = (   0.0000000  -1.0000000   0.0000000), wk =   0.0277778
        k(   14) = (   0.6666667  -0.3333333   1.0000000), wk =   0.2222222
        k(   15) = (   0.5000000  -0.1666667   0.8333333), wk =   0.2222222
        k(   16) = (  -0.3333333  -1.0000000   0.0000000), wk =   0.1111111

     Dense  grid:    43895 G-vectors     FFT dimensions: (  50,  50,  50)

     Smooth grid:    15593 G-vectors     FFT dimensions: (  36,  36,  36)

     Estimated max dynamical RAM per process >     160.72 MB

     Initial potential from superposition of free atoms

     starting charge   13.99765, renormalised to   14.00000
     Starting wfcs are    9 randomized atomic wfcs +    2 random wfcs

     total cpu time spent up to now is        2.2 secs

     Self-consistent Calculation

     iteration #  1     ecut=    70.00 Ry     beta= 0.70
     Davidson diagonalization with overlap
     ethr =  1.00E-02,  avg # of iterations =  4.2

     Threshold (ethr) on eigenvalues was too large:
     Diagonalizing with lowered threshold

     Davidson diagonalization with overlap
     ethr =  1.56E-05,  avg # of iterations =  3.6

     total cpu time spent up to now is        4.7 secs

     total energy              =    -135.42680729 Ry
     Harris-Foulkes estimate   =    -135.42799668 Ry
     estimated scf accuracy    <       0.00221757 Ry

     iteration #  2     ecut=    70.00 Ry     beta= 0.70
     Davidson diagonalization with overlap
     ethr =  1.58E-05,  avg # of iterations =  2.8

     total cpu time spent up to now is        6.3 secs

     total energy              =    -135.42722215 Ry
     Harris-Foulkes estimate   =    -135.42732227 Ry
     estimated scf accuracy    <       0.00019838 Ry

     iteration #  3     ecut=    70.00 Ry     beta= 0.70
     Davidson diagonalization with overlap
     ethr =  1.42E-06,  avg # of iterations =  2.1

     total cpu time spent up to now is        7.6 secs

     total energy              =    -135.42726121 Ry
     Harris-Foulkes estimate   =    -135.42726213 Ry
     estimated scf accuracy    <       0.00001225 Ry

     iteration #  4     ecut=    70.00 Ry     beta= 0.70
     Davidson diagonalization with overlap
     ethr =  8.75E-08,  avg # of iterations =  1.8

     total cpu time spent up to now is        9.0 secs

     total energy              =    -135.42726250 Ry
     Harris-Foulkes estimate   =    -135.42726244 Ry
     estimated scf accuracy    <       0.00000008 Ry

     iteration #  5     ecut=    70.00 Ry     beta= 0.70
     Davidson diagonalization with overlap
     ethr =  5.41E-10,  avg # of iterations =  2.4

     total cpu time spent up to now is       10.4 secs

     total energy              =    -135.42726253 Ry
     Harris-Foulkes estimate   =    -135.42726253 Ry
     estimated scf accuracy    <          3.5E-09 Ry

     iteration #  6     ecut=    70.00 Ry     beta= 0.70
     Davidson diagonalization with overlap
     ethr =  2.48E-11,  avg # of iterations =  2.0

     total cpu time spent up to now is       11.8 secs

     End of self-consistent calculation

          k = 0.0000 0.0000 0.0000 (  1917 PWs)   bands (ev):

    -5.2005  -5.2005  -5.2005  -5.0450  -5.0450  -0.1689  19.6549  19.6549
    19.6549  21.9845  23.7775

          k =-0.1667 0.1667-0.1667 (  1940 PWs)   bands (ev):

    -5.2048  -5.1676  -5.1676  -5.0387  -5.0387   0.3913  15.3655  19.0502
    19.0502  21.3712  24.9277

          k =-0.3333 0.3333-0.3333 (  1940 PWs)   bands (ev):

    -5.2255  -5.1732  -5.1732  -4.9513  -4.9513   2.0362  10.3172  18.1253
    18.1253  21.1273  22.8312

          k = 0.5000-0.5000 0.5000 (  1946 PWs)   bands (ev):

    -5.2413  -5.1912  -5.1912  -4.8908  -4.8908   3.7165   7.4584  17.7290
    17.7290  21.3989  21.7416

          k = 0.0000 0.3333 0.0000 (  1960 PWs)   bands (ev):

    -5.2482  -5.1178  -5.1178  -5.0979  -5.0106   0.5770  16.6087  17.4006
    17.4006  20.4407  21.9387

          k =-0.1667 0.5000-0.1667 (  1943 PWs)   bands (ev):

    -5.2594  -5.1512  -5.0896  -5.0353  -4.9366   1.8664  12.1483  16.2513
    16.3485  19.9504  22.4381

          k = 0.6667-0.3333 0.6667 (  1942 PWs)   bands (ev):

    -5.2432  -5.1624  -5.1166  -4.9735  -4.8862   3.8141   8.4225  14.6998
    16.3809  19.6553  24.6702

          k = 0.5000-0.1667 0.5000 (  1943 PWs)   bands (ev):

    -5.2061  -5.1717  -5.1202  -4.9640  -4.9444   3.1834   9.4444  14.0196
    17.5655  20.4504  23.9109

          k = 0.3333 0.0000 0.3333 (  1935 PWs)   bands (ev):

    -5.2013  -5.1598  -5.1075  -5.0781  -4.9748   1.3186  13.3502  14.9828
    19.2919  22.2870  23.0854

          k = 0.0000 0.6667 0.0000 (  1948 PWs)   bands (ev):

    -5.3424  -5.2245  -4.9426  -4.9426  -4.9406   2.7731  11.9592  14.9228
    14.9228  18.3463  19.1067

          k = 0.8333-0.1667 0.8333 (  1941 PWs)   bands (ev):

    -5.3272  -5.2303  -4.9663  -4.9270  -4.8732   4.4542   9.6712  12.3105
    14.6639  18.3391  21.3933

          k = 0.6667-0.0000 0.6667 (  1935 PWs)   bands (ev):

    -5.2681  -5.0903  -5.0337  -5.0102  -4.9322   4.7328   9.9860  10.2469
    15.6907  18.9745  26.1611

          k = 0.0000-1.0000 0.0000 (  1964 PWs)   bands (ev):

    -5.3891  -5.2954  -4.9054  -4.8503  -4.8503   5.2329   8.4370  14.0012
    14.0012  17.4020  18.6710

          k = 0.6667-0.3333 1.0000 (  1930 PWs)   bands (ev):

    -5.2367  -5.1865  -5.0735  -4.9473  -4.9346   3.3935  10.8029  12.6422
    15.0182  21.3703  22.3861

          k = 0.5000-0.1667 0.8333 (  1930 PWs)   bands (ev):

    -5.2106  -5.1628  -5.0587  -5.0140  -4.8883   4.7570   9.1208  11.8924
    13.9553  21.5880  23.6001

          k =-0.3333-1.0000 0.0000 (  1940 PWs)   bands (ev):

    -5.2656  -5.2265  -4.9972  -4.9648  -4.8502   5.3184   9.3550  11.7847
    12.4545  20.9781  21.8604

     the Fermi energy is    12.0657 ev

!    total energy              =    -135.42726253 Ry
     Harris-Foulkes estimate   =    -135.42726253 Ry
     estimated scf accuracy    <          1.6E-10 Ry

     The total energy is the sum of the following terms:

     one-electron contribution =     -31.48940789 Ry
     hartree contribution      =      26.12922482 Ry
     xc contribution           =     -32.62834023 Ry
     ewald contribution        =     -97.43857717 Ry
     smearing contrib. (-TS)   =      -0.00016206 Ry

     convergence has been achieved in   6 iterations

     Writing output data file Pb.save/

     init_run     :      1.34s CPU      1.39s WALL (       1 calls)
     electrons    :      8.87s CPU      9.61s WALL (       1 calls)

     Called by init_run:
     wfcinit      :      0.27s CPU      0.27s WALL (       1 calls)
     potinit      :      0.10s CPU      0.10s WALL (       1 calls)
     hinit0       :      0.84s CPU      0.84s WALL (       1 calls)

     Called by electrons:
     c_bands      :      6.02s CPU      6.10s WALL (       7 calls)
     sum_band     :      1.84s CPU      2.20s WALL (       7 calls)
     v_of_rho     :      0.45s CPU      0.47s WALL (       7 calls)
     newd         :      0.66s CPU      0.97s WALL (       7 calls)
     mix_rho      :      0.04s CPU      0.04s WALL (       7 calls)

     Called by c_bands:
     init_us_2    :      0.13s CPU      0.14s WALL (     240 calls)
     cegterg      :      5.71s CPU      5.78s WALL (     112 calls)

     Called by sum_band:
     sum_band:bec :      0.00s CPU      0.00s WALL (     112 calls)
     addusdens    :      0.78s CPU      1.13s WALL (       7 calls)

     Called by *egterg:
     h_psi        :      4.58s CPU      4.65s WALL (     429 calls)
     s_psi        :      0.23s CPU      0.23s WALL (     429 calls)
     g_psi        :      0.03s CPU      0.03s WALL (     301 calls)
     cdiaghg      :      0.10s CPU      0.10s WALL (     397 calls)

     Called by h_psi:
     h_psi:pot    :      4.57s CPU      4.63s WALL (     429 calls)
     h_psi:calbec :      0.25s CPU      0.26s WALL (     429 calls)
     vloc_psi     :      4.09s CPU      4.14s WALL (     429 calls)
     add_vuspsi   :      0.23s CPU      0.23s WALL (     429 calls)

     General routines
     calbec       :      0.34s CPU      0.35s WALL (     541 calls)
     fft          :      0.22s CPU      0.22s WALL (      90 calls)
     ffts         :      0.02s CPU      0.02s WALL (      14 calls)
     fftw         :      4.24s CPU      4.29s WALL (    7922 calls)
     interpolate  :      0.03s CPU      0.03s WALL (       7 calls)

     Parallel routines

     PWSCF        :     11.02s CPU     11.82s WALL


   This run was terminated on:  19:53:34  30Jun2021            

=------------------------------------------------------------------------------=
   JOB DONE.
=------------------------------------------------------------------------------=
