
     Program PWSCF v.6.4.1 starts on 30Jun2021 at 19:52: 2 

     This program is part of the open-source Quantum ESPRESSO suite
     for quantum simulation of materials; please cite
         "P. Giannozzi et al., J. Phys.:Condens. Matter 21 395502 (2009);
         "P. Giannozzi et al., J. Phys.:Condens. Matter 29 465901 (2017);
          URL http://www.quantum-espresso.org", 
     in publications or presentations arising from this work. More details at
     http://www.quantum-espresso.org/quote

     Parallel version (MPI), running on     1 processors

     MPI processes distributed on     1 nodes
     Waiting for input...
     Reading input from standard input

     Current dimensions of program PWSCF are:
     Max number of different atomic species (ntypx) = 10
     Max number of k-points (npk) =  40000
     Max angular momentum in pseudopotentials (lmaxx) =  3
               file Pb.pbe-dn-rrkjus_psl.1.0.0.UPF: wavefunction(s)  6S 5D renormalized

     Subspace diagonalization in iterative solution of the eigenvalue problem:
     a serial algorithm will be used


     G-vector sticks info
     --------------------
     sticks:   dense  smooth     PW     G-vecs:    dense   smooth      PW
     Sum        1639     823    253                43895    15593    2637


     Title: 
     Lead                                                                       


     bravais-lattice index     =            2
     lattice parameter (alat)  =       9.2226  a.u.
     unit-cell volume          =     196.1075 (a.u.)^3
     number of atoms/cell      =            1
     number of atomic types    =            1
     number of electrons       =        14.00
     number of Kohn-Sham states=           11
     kinetic-energy cutoff     =      70.0000  Ry
     charge density cutoff     =     560.0000  Ry
     convergence threshold     =      1.0E-09
     mixing beta               =       0.7000
     number of iterations used =            8  plain     mixing
     Exchange-correlation      = PBE ( 1  4  3  4 0 0)

     celldm(1)=   9.222558  celldm(2)=   0.000000  celldm(3)=   0.000000
     celldm(4)=   0.000000  celldm(5)=   0.000000  celldm(6)=   0.000000

     crystal axes: (cart. coord. in units of alat)
               a(1) = (  -0.500000   0.000000   0.500000 )  
               a(2) = (   0.000000   0.500000   0.500000 )  
               a(3) = (  -0.500000   0.500000   0.000000 )  

     reciprocal axes: (cart. coord. in units 2 pi/alat)
               b(1) = ( -1.000000 -1.000000  1.000000 )  
               b(2) = (  1.000000  1.000000  1.000000 )  
               b(3) = ( -1.000000  1.000000 -1.000000 )  


     PseudoPot. # 1 for Pb read from file:
     /home/elena/qe-6.7/pseudo/Pb.pbe-dn-rrkjus_psl.1.0.0.UPF
     MD5 check sum: 1cf8f5e18580e6a90a35f98a53d336de
     Pseudo is Ultrasoft + core correction, Zval = 14.0
     Generated using "atomic" code by A. Dal Corso v.6.3
     Using radial grid of 1281 points,  6 beta functions with: 
                l(1) =   0
                l(2) =   0
                l(3) =   1
                l(4) =   1
                l(5) =   2
                l(6) =   2
     Q(r) pseudized with 0 coefficients 


     atomic species   valence    mass     pseudopotential
        Pb            14.00   207.20000     Pb( 1.00)

     48 Sym. Ops., with inversion, found



   Cartesian axes

     site n.     atom                  positions (alat units)
         1           Pb  tau(   1) = (   0.0000000   0.0000000   0.0000000  )

     number of k points=    16  Methfessel-Paxton smearing, width (Ry)=  0.0900
                       cart. coord. in units 2pi/alat
        k(    1) = (   0.0000000   0.0000000   0.0000000), wk =   0.0092593
        k(    2) = (  -0.1666667   0.1666667  -0.1666667), wk =   0.0740741
        k(    3) = (  -0.3333333   0.3333333  -0.3333333), wk =   0.0740741
        k(    4) = (   0.5000000  -0.5000000   0.5000000), wk =   0.0370370
        k(    5) = (   0.0000000   0.3333333   0.0000000), wk =   0.0555556
        k(    6) = (  -0.1666667   0.5000000  -0.1666667), wk =   0.2222222
        k(    7) = (   0.6666667  -0.3333333   0.6666667), wk =   0.2222222
        k(    8) = (   0.5000000  -0.1666667   0.5000000), wk =   0.2222222
        k(    9) = (   0.3333333   0.0000000   0.3333333), wk =   0.1111111
        k(   10) = (   0.0000000   0.6666667   0.0000000), wk =   0.0555556
        k(   11) = (   0.8333333  -0.1666667   0.8333333), wk =   0.2222222
        k(   12) = (   0.6666667  -0.0000000   0.6666667), wk =   0.1111111
        k(   13) = (   0.0000000  -1.0000000   0.0000000), wk =   0.0277778
        k(   14) = (   0.6666667  -0.3333333   1.0000000), wk =   0.2222222
        k(   15) = (   0.5000000  -0.1666667   0.8333333), wk =   0.2222222
        k(   16) = (  -0.3333333  -1.0000000   0.0000000), wk =   0.1111111

     Dense  grid:    43895 G-vectors     FFT dimensions: (  50,  50,  50)

     Smooth grid:    15593 G-vectors     FFT dimensions: (  36,  36,  36)

     Estimated max dynamical RAM per process >     160.72 MB

     Initial potential from superposition of free atoms

     starting charge   13.99765, renormalised to   14.00000
     Starting wfcs are    9 randomized atomic wfcs +    2 random wfcs

     total cpu time spent up to now is        2.0 secs

     Self-consistent Calculation

     iteration #  1     ecut=    70.00 Ry     beta= 0.70
     Davidson diagonalization with overlap
     ethr =  1.00E-02,  avg # of iterations =  4.2

     Threshold (ethr) on eigenvalues was too large:
     Diagonalizing with lowered threshold

     Davidson diagonalization with overlap
     ethr =  1.57E-05,  avg # of iterations =  3.6

     total cpu time spent up to now is        4.4 secs

     total energy              =    -135.43121645 Ry
     Harris-Foulkes estimate   =    -135.43253692 Ry
     estimated scf accuracy    <       0.00221058 Ry

     iteration #  2     ecut=    70.00 Ry     beta= 0.70
     Davidson diagonalization with overlap
     ethr =  1.58E-05,  avg # of iterations =  2.8

     total cpu time spent up to now is        5.7 secs

     total energy              =    -135.43166286 Ry
     Harris-Foulkes estimate   =    -135.43177292 Ry
     estimated scf accuracy    <       0.00019484 Ry

     iteration #  3     ecut=    70.00 Ry     beta= 0.70
     Davidson diagonalization with overlap
     ethr =  1.39E-06,  avg # of iterations =  2.1

     total cpu time spent up to now is        7.0 secs

     total energy              =    -135.43170316 Ry
     Harris-Foulkes estimate   =    -135.43170418 Ry
     estimated scf accuracy    <       0.00000953 Ry

     iteration #  4     ecut=    70.00 Ry     beta= 0.70
     Davidson diagonalization with overlap
     ethr =  6.81E-08,  avg # of iterations =  1.8

     total cpu time spent up to now is        8.1 secs

     total energy              =    -135.43170425 Ry
     Harris-Foulkes estimate   =    -135.43170419 Ry
     estimated scf accuracy    <       0.00000008 Ry

     iteration #  5     ecut=    70.00 Ry     beta= 0.70
     Davidson diagonalization with overlap
     ethr =  5.90E-10,  avg # of iterations =  2.3

     total cpu time spent up to now is        9.3 secs

     total energy              =    -135.43170428 Ry
     Harris-Foulkes estimate   =    -135.43170429 Ry
     estimated scf accuracy    <          9.7E-09 Ry

     iteration #  6     ecut=    70.00 Ry     beta= 0.70
     Davidson diagonalization with overlap
     ethr =  6.94E-11,  avg # of iterations =  2.0

     total cpu time spent up to now is       10.5 secs

     End of self-consistent calculation

          k = 0.0000 0.0000 0.0000 (  1917 PWs)   bands (ev):

    -5.2196  -5.2196  -5.2196  -5.0608  -5.0608  -0.1770  19.6479  19.6479
    19.6479  21.9806  23.7586

          k =-0.1667 0.1667-0.1667 (  1940 PWs)   bands (ev):

    -5.2238  -5.1864  -5.1864  -5.0548  -5.0548   0.3831  15.3577  19.0430
    19.0430  21.3653  24.9162

          k =-0.3333 0.3333-0.3333 (  1940 PWs)   bands (ev):

    -5.2444  -5.1906  -5.1906  -4.9688  -4.9688   2.0276  10.3099  18.1178
    18.1178  21.1196  22.8229

          k = 0.5000-0.5000 0.5000 (  1946 PWs)   bands (ev):

    -5.2601  -5.2083  -5.2083  -4.9087  -4.9087   3.7067   7.4522  17.7215
    17.7215  21.3894  21.7349

          k = 0.0000 0.3333 0.0000 (  1960 PWs)   bands (ev):

    -5.2672  -5.1369  -5.1369  -5.1136  -5.0264   0.5688  16.5991  17.3940
    17.3940  20.4365  21.9293

          k =-0.1667 0.5000-0.1667 (  1943 PWs)   bands (ev):

    -5.2783  -5.1675  -5.1073  -5.0539  -4.9538   1.8579  12.1405  16.2441
    16.3419  19.9422  22.4315

          k = 0.6667-0.3333 0.6667 (  1942 PWs)   bands (ev):

    -5.2612  -5.1799  -5.1336  -4.9916  -4.9042   3.8046   8.4160  14.6928
    16.3741  19.6466  24.6629

          k = 0.5000-0.1667 0.5000 (  1943 PWs)   bands (ev):

    -5.2238  -5.1901  -5.1370  -4.9821  -4.9620   3.1744   9.4373  14.0129
    17.5582  20.4416  23.9046

          k = 0.3333 0.0000 0.3333 (  1935 PWs)   bands (ev):

    -5.2203  -5.1777  -5.1267  -5.0938  -4.9918   1.3103  13.3417  14.9767
    19.2838  22.2781  23.0810

          k = 0.0000 0.6667 0.0000 (  1948 PWs)   bands (ev):

    -5.3613  -5.2399  -4.9619  -4.9619  -4.9564   2.7644  11.9513  14.9166
    14.9166  18.3349  19.1022

          k = 0.8333-0.1667 0.8333 (  1941 PWs)   bands (ev):

    -5.3457  -5.2461  -4.9829  -4.9464  -4.8919   4.4445   9.6647  12.3038
    14.6576  18.3297  21.3869

          k = 0.6667-0.0000 0.6667 (  1935 PWs)   bands (ev):

    -5.2856  -5.1073  -5.0528  -5.0259  -4.9515   4.7228   9.9788  10.2413
    15.6841  18.9657  26.1545

          k = 0.0000-1.0000 0.0000 (  1964 PWs)   bands (ev):

    -5.4079  -5.3108  -4.9213  -4.8697  -4.8697   5.2222   8.4317  13.9951
    13.9951  17.3897  18.6666

          k = 0.6667-0.3333 1.0000 (  1930 PWs)   bands (ev):

    -5.2556  -5.2025  -5.0908  -4.9666  -4.9518   3.3845  10.7951  12.6364
    15.0109  21.3595  22.3815

          k = 0.5000-0.1667 0.8333 (  1930 PWs)   bands (ev):

    -5.2272  -5.1816  -5.0767  -5.0303  -4.9073   4.7469   9.1145  11.8860
    13.9480  21.5782  23.5948

          k =-0.3333-1.0000 0.0000 (  1940 PWs)   bands (ev):

    -5.2845  -5.2420  -5.0164  -4.9807  -4.8697   5.3077   9.3495  11.7789
    12.4467  20.9671  21.8558

     the Fermi energy is    11.9703 ev

!    total energy              =    -135.43170428 Ry
     Harris-Foulkes estimate   =    -135.43170428 Ry
     estimated scf accuracy    <          4.5E-10 Ry

     The total energy is the sum of the following terms:

     one-electron contribution =     -31.47481636 Ry
     hartree contribution      =      26.11301589 Ry
     xc contribution           =     -32.62635070 Ry
     ewald contribution        =     -97.43857717 Ry
     smearing contrib. (-TS)   =      -0.00497595 Ry

     convergence has been achieved in   6 iterations

     Writing output data file Pb.save/

     init_run     :      1.23s CPU      1.27s WALL (       1 calls)
     electrons    :      7.95s CPU      8.50s WALL (       1 calls)

     Called by init_run:
     wfcinit      :      0.26s CPU      0.27s WALL (       1 calls)
     potinit      :      0.07s CPU      0.08s WALL (       1 calls)
     hinit0       :      0.77s CPU      0.77s WALL (       1 calls)

     Called by electrons:
     c_bands      :      5.48s CPU      5.50s WALL (       7 calls)
     sum_band     :      1.55s CPU      1.84s WALL (       7 calls)
     v_of_rho     :      0.40s CPU      0.41s WALL (       7 calls)
     newd         :      0.60s CPU      0.86s WALL (       7 calls)
     mix_rho      :      0.04s CPU      0.04s WALL (       7 calls)

     Called by c_bands:
     init_us_2    :      0.12s CPU      0.12s WALL (     240 calls)
     cegterg      :      5.19s CPU      5.21s WALL (     112 calls)

     Called by sum_band:
     sum_band:bec :      0.00s CPU      0.00s WALL (     112 calls)
     addusdens    :      0.66s CPU      0.95s WALL (       7 calls)

     Called by *egterg:
     h_psi        :      4.19s CPU      4.21s WALL (     427 calls)
     s_psi        :      0.21s CPU      0.21s WALL (     427 calls)
     g_psi        :      0.03s CPU      0.03s WALL (     299 calls)
     cdiaghg      :      0.09s CPU      0.09s WALL (     395 calls)

     Called by h_psi:
     h_psi:pot    :      4.18s CPU      4.19s WALL (     427 calls)
     h_psi:calbec :      0.23s CPU      0.23s WALL (     427 calls)
     vloc_psi     :      3.74s CPU      3.75s WALL (     427 calls)
     add_vuspsi   :      0.21s CPU      0.21s WALL (     427 calls)

     General routines
     calbec       :      0.30s CPU      0.30s WALL (     539 calls)
     fft          :      0.19s CPU      0.19s WALL (      90 calls)
     ffts         :      0.02s CPU      0.02s WALL (      14 calls)
     fftw         :      3.88s CPU      3.90s WALL (    7990 calls)
     interpolate  :      0.03s CPU      0.03s WALL (       7 calls)

     Parallel routines

     PWSCF        :      9.97s CPU     10.57s WALL


   This run was terminated on:  19:52:13  30Jun2021            

=------------------------------------------------------------------------------=
   JOB DONE.
=------------------------------------------------------------------------------=
