
     Program PWSCF v.6.4.1 starts on 30Jun2021 at 19:52:59 

     This program is part of the open-source Quantum ESPRESSO suite
     for quantum simulation of materials; please cite
         "P. Giannozzi et al., J. Phys.:Condens. Matter 21 395502 (2009);
         "P. Giannozzi et al., J. Phys.:Condens. Matter 29 465901 (2017);
          URL http://www.quantum-espresso.org", 
     in publications or presentations arising from this work. More details at
     http://www.quantum-espresso.org/quote

     Parallel version (MPI), running on     1 processors

     MPI processes distributed on     1 nodes
     Waiting for input...
     Reading input from standard input

     Current dimensions of program PWSCF are:
     Max number of different atomic species (ntypx) = 10
     Max number of k-points (npk) =  40000
     Max angular momentum in pseudopotentials (lmaxx) =  3
               file Pb.pbe-dn-rrkjus_psl.1.0.0.UPF: wavefunction(s)  6S 5D renormalized

     Subspace diagonalization in iterative solution of the eigenvalue problem:
     a serial algorithm will be used


     G-vector sticks info
     --------------------
     sticks:   dense  smooth     PW     G-vecs:    dense   smooth      PW
     Sum        1639     823    253                43895    15593    2637


     Title: 
     Lead                                                                       


     bravais-lattice index     =            2
     lattice parameter (alat)  =       9.2226  a.u.
     unit-cell volume          =     196.1075 (a.u.)^3
     number of atoms/cell      =            1
     number of atomic types    =            1
     number of electrons       =        14.00
     number of Kohn-Sham states=           11
     kinetic-energy cutoff     =      70.0000  Ry
     charge density cutoff     =     560.0000  Ry
     convergence threshold     =      1.0E-09
     mixing beta               =       0.7000
     number of iterations used =            8  plain     mixing
     Exchange-correlation      = PBE ( 1  4  3  4 0 0)

     celldm(1)=   9.222558  celldm(2)=   0.000000  celldm(3)=   0.000000
     celldm(4)=   0.000000  celldm(5)=   0.000000  celldm(6)=   0.000000

     crystal axes: (cart. coord. in units of alat)
               a(1) = (  -0.500000   0.000000   0.500000 )  
               a(2) = (   0.000000   0.500000   0.500000 )  
               a(3) = (  -0.500000   0.500000   0.000000 )  

     reciprocal axes: (cart. coord. in units 2 pi/alat)
               b(1) = ( -1.000000 -1.000000  1.000000 )  
               b(2) = (  1.000000  1.000000  1.000000 )  
               b(3) = ( -1.000000  1.000000 -1.000000 )  


     PseudoPot. # 1 for Pb read from file:
     /home/elena/qe-6.7/pseudo/Pb.pbe-dn-rrkjus_psl.1.0.0.UPF
     MD5 check sum: 1cf8f5e18580e6a90a35f98a53d336de
     Pseudo is Ultrasoft + core correction, Zval = 14.0
     Generated using "atomic" code by A. Dal Corso v.6.3
     Using radial grid of 1281 points,  6 beta functions with: 
                l(1) =   0
                l(2) =   0
                l(3) =   1
                l(4) =   1
                l(5) =   2
                l(6) =   2
     Q(r) pseudized with 0 coefficients 


     atomic species   valence    mass     pseudopotential
        Pb            14.00   207.20000     Pb( 1.00)

     48 Sym. Ops., with inversion, found



   Cartesian axes

     site n.     atom                  positions (alat units)
         1           Pb  tau(   1) = (   0.0000000   0.0000000   0.0000000  )

     number of k points=    16  Methfessel-Paxton smearing, width (Ry)=  0.0400
                       cart. coord. in units 2pi/alat
        k(    1) = (   0.0000000   0.0000000   0.0000000), wk =   0.0092593
        k(    2) = (  -0.1666667   0.1666667  -0.1666667), wk =   0.0740741
        k(    3) = (  -0.3333333   0.3333333  -0.3333333), wk =   0.0740741
        k(    4) = (   0.5000000  -0.5000000   0.5000000), wk =   0.0370370
        k(    5) = (   0.0000000   0.3333333   0.0000000), wk =   0.0555556
        k(    6) = (  -0.1666667   0.5000000  -0.1666667), wk =   0.2222222
        k(    7) = (   0.6666667  -0.3333333   0.6666667), wk =   0.2222222
        k(    8) = (   0.5000000  -0.1666667   0.5000000), wk =   0.2222222
        k(    9) = (   0.3333333   0.0000000   0.3333333), wk =   0.1111111
        k(   10) = (   0.0000000   0.6666667   0.0000000), wk =   0.0555556
        k(   11) = (   0.8333333  -0.1666667   0.8333333), wk =   0.2222222
        k(   12) = (   0.6666667  -0.0000000   0.6666667), wk =   0.1111111
        k(   13) = (   0.0000000  -1.0000000   0.0000000), wk =   0.0277778
        k(   14) = (   0.6666667  -0.3333333   1.0000000), wk =   0.2222222
        k(   15) = (   0.5000000  -0.1666667   0.8333333), wk =   0.2222222
        k(   16) = (  -0.3333333  -1.0000000   0.0000000), wk =   0.1111111

     Dense  grid:    43895 G-vectors     FFT dimensions: (  50,  50,  50)

     Smooth grid:    15593 G-vectors     FFT dimensions: (  36,  36,  36)

     Estimated max dynamical RAM per process >     160.72 MB

     Initial potential from superposition of free atoms

     starting charge   13.99765, renormalised to   14.00000
     Starting wfcs are    9 randomized atomic wfcs +    2 random wfcs

     total cpu time spent up to now is        2.0 secs

     Self-consistent Calculation

     iteration #  1     ecut=    70.00 Ry     beta= 0.70
     Davidson diagonalization with overlap
     ethr =  1.00E-02,  avg # of iterations =  4.2

     Threshold (ethr) on eigenvalues was too large:
     Diagonalizing with lowered threshold

     Davidson diagonalization with overlap
     ethr =  1.53E-05,  avg # of iterations =  3.6

     total cpu time spent up to now is        4.5 secs

     total energy              =    -135.42756959 Ry
     Harris-Foulkes estimate   =    -135.42880671 Ry
     estimated scf accuracy    <       0.00215208 Ry

     iteration #  2     ecut=    70.00 Ry     beta= 0.70
     Davidson diagonalization with overlap
     ethr =  1.54E-05,  avg # of iterations =  2.8

     total cpu time spent up to now is        5.7 secs

     total energy              =    -135.42799354 Ry
     Harris-Foulkes estimate   =    -135.42809795 Ry
     estimated scf accuracy    <       0.00019261 Ry

     iteration #  3     ecut=    70.00 Ry     beta= 0.70
     Davidson diagonalization with overlap
     ethr =  1.38E-06,  avg # of iterations =  2.1

     total cpu time spent up to now is        6.9 secs

     total energy              =    -135.42803273 Ry
     Harris-Foulkes estimate   =    -135.42803368 Ry
     estimated scf accuracy    <       0.00001046 Ry

     iteration #  4     ecut=    70.00 Ry     beta= 0.70
     Davidson diagonalization with overlap
     ethr =  7.47E-08,  avg # of iterations =  1.8

     total cpu time spent up to now is        8.0 secs

     total energy              =    -135.42803386 Ry
     Harris-Foulkes estimate   =    -135.42803381 Ry
     estimated scf accuracy    <       0.00000008 Ry

     iteration #  5     ecut=    70.00 Ry     beta= 0.70
     Davidson diagonalization with overlap
     ethr =  5.55E-10,  avg # of iterations =  2.3

     total cpu time spent up to now is        9.2 secs

     total energy              =    -135.42803389 Ry
     Harris-Foulkes estimate   =    -135.42803389 Ry
     estimated scf accuracy    <          6.1E-09 Ry

     iteration #  6     ecut=    70.00 Ry     beta= 0.70
     Davidson diagonalization with overlap
     ethr =  4.36E-11,  avg # of iterations =  2.0

     total cpu time spent up to now is       10.5 secs

     End of self-consistent calculation

          k = 0.0000 0.0000 0.0000 (  1917 PWs)   bands (ev):

    -5.2069  -5.2069  -5.2069  -5.0496  -5.0496  -0.1720  19.6523  19.6523
    19.6523  21.9831  23.7679

          k =-0.1667 0.1667-0.1667 (  1940 PWs)   bands (ev):

    -5.2112  -5.1738  -5.1738  -5.0434  -5.0434   0.3881  15.3624  19.0475
    19.0475  21.3689  24.9217

          k =-0.3333 0.3333-0.3333 (  1940 PWs)   bands (ev):

    -5.2319  -5.1787  -5.1787  -4.9568  -4.9568   2.0330  10.3143  18.1225
    18.1225  21.1239  22.8274

          k = 0.5000-0.5000 0.5000 (  1946 PWs)   bands (ev):

    -5.2476  -5.1965  -5.1965  -4.8964  -4.8964   3.7129   7.4557  17.7262
    17.7262  21.3938  21.7394

          k = 0.0000 0.3333 0.0000 (  1960 PWs)   bands (ev):

    -5.2546  -5.1242  -5.1242  -5.1025  -5.0151   0.5739  16.6048  17.3982
    17.3982  20.4394  21.9340

          k =-0.1667 0.5000-0.1667 (  1943 PWs)   bands (ev):

    -5.2657  -5.1561  -5.0952  -5.0414  -4.9419   1.8632  12.1452  16.2486
    16.3461  19.9464  22.4353

          k = 0.6667-0.3333 0.6667 (  1942 PWs)   bands (ev):

    -5.2491  -5.1680  -5.1218  -4.9793  -4.8919   3.8106   8.4198  14.6972
    16.3783  19.6511  24.6673

          k = 0.5000-0.1667 0.5000 (  1943 PWs)   bands (ev):

    -5.2118  -5.1777  -5.1254  -4.9699  -4.9500   3.1800   9.4415  14.0171
    17.5628  20.4461  23.9085

          k = 0.3333 0.0000 0.3333 (  1935 PWs)   bands (ev):

    -5.2077  -5.1655  -5.1139  -5.0826  -4.9800   1.3154  13.3467  14.9806
    19.2888  22.2826  23.0839

          k = 0.0000 0.6667 0.0000 (  1948 PWs)   bands (ev):

    -5.3488  -5.2289  -4.9490  -4.9490  -4.9451   2.7698  11.9562  14.9205
    14.9205  18.3404  19.1053

          k = 0.8333-0.1667 0.8333 (  1941 PWs)   bands (ev):

    -5.3333  -5.2349  -4.9713  -4.9335  -4.8793   4.4506   9.6688  12.3078
    14.6615  18.3346  21.3907

          k = 0.6667-0.0000 0.6667 (  1935 PWs)   bands (ev):

    -5.2737  -5.0956  -5.0401  -5.0147  -4.9387   4.7291   9.9830  10.2448
    15.6882  18.9704  26.1584

          k = 0.0000-1.0000 0.0000 (  1964 PWs)   bands (ev):

    -5.3955  -5.2999  -4.9100  -4.8568  -4.8568   5.2289   8.4350  13.9989
    13.9989  17.3957  18.6697

          k = 0.6667-0.3333 1.0000 (  1930 PWs)   bands (ev):

    -5.2430  -5.1913  -5.0789  -4.9538  -4.9399   3.3901  10.7998  12.6401
    15.0152  21.3650  22.3846

          k = 0.5000-0.1667 0.8333 (  1930 PWs)   bands (ev):

    -5.2157  -5.1690  -5.0645  -5.0188  -4.8946   4.7533   9.1182  11.8900
    13.9523  21.5833  23.5983

          k =-0.3333-1.0000 0.0000 (  1940 PWs)   bands (ev):

    -5.2719  -5.2310  -5.0036  -4.9694  -4.8567   5.3144   9.3529  11.7825
    12.4510  20.9727  21.8589

     the Fermi energy is    12.0619 ev

!    total energy              =    -135.42803389 Ry
     Harris-Foulkes estimate   =    -135.42803389 Ry
     estimated scf accuracy    <          3.3E-10 Ry

     The total energy is the sum of the following terms:

     one-electron contribution =     -31.48300723 Ry
     hartree contribution      =      26.12387477 Ry
     xc contribution           =     -32.62773638 Ry
     ewald contribution        =     -97.43857717 Ry
     smearing contrib. (-TS)   =      -0.00258787 Ry

     convergence has been achieved in   6 iterations

     Writing output data file Pb.save/

     init_run     :      1.23s CPU      1.27s WALL (       1 calls)
     electrons    :      7.88s CPU      8.43s WALL (       1 calls)

     Called by init_run:
     wfcinit      :      0.27s CPU      0.27s WALL (       1 calls)
     potinit      :      0.08s CPU      0.08s WALL (       1 calls)
     hinit0       :      0.76s CPU      0.76s WALL (       1 calls)

     Called by electrons:
     c_bands      :      5.39s CPU      5.42s WALL (       7 calls)
     sum_band     :      1.57s CPU      1.86s WALL (       7 calls)
     v_of_rho     :      0.40s CPU      0.41s WALL (       7 calls)
     newd         :      0.60s CPU      0.86s WALL (       7 calls)
     mix_rho      :      0.04s CPU      0.04s WALL (       7 calls)

     Called by c_bands:
     init_us_2    :      0.12s CPU      0.12s WALL (     240 calls)
     cegterg      :      5.12s CPU      5.14s WALL (     112 calls)

     Called by sum_band:
     sum_band:bec :      0.00s CPU      0.00s WALL (     112 calls)
     addusdens    :      0.68s CPU      0.97s WALL (       7 calls)

     Called by *egterg:
     h_psi        :      4.13s CPU      4.15s WALL (     427 calls)
     s_psi        :      0.20s CPU      0.21s WALL (     427 calls)
     g_psi        :      0.03s CPU      0.03s WALL (     299 calls)
     cdiaghg      :      0.09s CPU      0.09s WALL (     395 calls)

     Called by h_psi:
     h_psi:pot    :      4.12s CPU      4.13s WALL (     427 calls)
     h_psi:calbec :      0.23s CPU      0.23s WALL (     427 calls)
     vloc_psi     :      3.68s CPU      3.70s WALL (     427 calls)
     add_vuspsi   :      0.21s CPU      0.21s WALL (     427 calls)

     General routines
     calbec       :      0.30s CPU      0.30s WALL (     539 calls)
     fft          :      0.19s CPU      0.19s WALL (      90 calls)
     ffts         :      0.02s CPU      0.02s WALL (      14 calls)
     fftw         :      3.84s CPU      3.85s WALL (    7976 calls)
     interpolate  :      0.03s CPU      0.03s WALL (       7 calls)

     Parallel routines

     PWSCF        :      9.87s CPU     10.49s WALL


   This run was terminated on:  19:53:10  30Jun2021            

=------------------------------------------------------------------------------=
   JOB DONE.
=------------------------------------------------------------------------------=
