
     Program PWSCF v.6.4.1 starts on 30Jun2021 at 19:52:14 

     This program is part of the open-source Quantum ESPRESSO suite
     for quantum simulation of materials; please cite
         "P. Giannozzi et al., J. Phys.:Condens. Matter 21 395502 (2009);
         "P. Giannozzi et al., J. Phys.:Condens. Matter 29 465901 (2017);
          URL http://www.quantum-espresso.org", 
     in publications or presentations arising from this work. More details at
     http://www.quantum-espresso.org/quote

     Parallel version (MPI), running on     1 processors

     MPI processes distributed on     1 nodes
     Waiting for input...
     Reading input from standard input

     Current dimensions of program PWSCF are:
     Max number of different atomic species (ntypx) = 10
     Max number of k-points (npk) =  40000
     Max angular momentum in pseudopotentials (lmaxx) =  3
               file Pb.pbe-dn-rrkjus_psl.1.0.0.UPF: wavefunction(s)  6S 5D renormalized

     Subspace diagonalization in iterative solution of the eigenvalue problem:
     a serial algorithm will be used


     G-vector sticks info
     --------------------
     sticks:   dense  smooth     PW     G-vecs:    dense   smooth      PW
     Sum        1639     823    253                43895    15593    2637


     Title: 
     Lead                                                                       


     bravais-lattice index     =            2
     lattice parameter (alat)  =       9.2226  a.u.
     unit-cell volume          =     196.1075 (a.u.)^3
     number of atoms/cell      =            1
     number of atomic types    =            1
     number of electrons       =        14.00
     number of Kohn-Sham states=           11
     kinetic-energy cutoff     =      70.0000  Ry
     charge density cutoff     =     560.0000  Ry
     convergence threshold     =      1.0E-09
     mixing beta               =       0.7000
     number of iterations used =            8  plain     mixing
     Exchange-correlation      = PBE ( 1  4  3  4 0 0)

     celldm(1)=   9.222558  celldm(2)=   0.000000  celldm(3)=   0.000000
     celldm(4)=   0.000000  celldm(5)=   0.000000  celldm(6)=   0.000000

     crystal axes: (cart. coord. in units of alat)
               a(1) = (  -0.500000   0.000000   0.500000 )  
               a(2) = (   0.000000   0.500000   0.500000 )  
               a(3) = (  -0.500000   0.500000   0.000000 )  

     reciprocal axes: (cart. coord. in units 2 pi/alat)
               b(1) = ( -1.000000 -1.000000  1.000000 )  
               b(2) = (  1.000000  1.000000  1.000000 )  
               b(3) = ( -1.000000  1.000000 -1.000000 )  


     PseudoPot. # 1 for Pb read from file:
     /home/elena/qe-6.7/pseudo/Pb.pbe-dn-rrkjus_psl.1.0.0.UPF
     MD5 check sum: 1cf8f5e18580e6a90a35f98a53d336de
     Pseudo is Ultrasoft + core correction, Zval = 14.0
     Generated using "atomic" code by A. Dal Corso v.6.3
     Using radial grid of 1281 points,  6 beta functions with: 
                l(1) =   0
                l(2) =   0
                l(3) =   1
                l(4) =   1
                l(5) =   2
                l(6) =   2
     Q(r) pseudized with 0 coefficients 


     atomic species   valence    mass     pseudopotential
        Pb            14.00   207.20000     Pb( 1.00)

     48 Sym. Ops., with inversion, found



   Cartesian axes

     site n.     atom                  positions (alat units)
         1           Pb  tau(   1) = (   0.0000000   0.0000000   0.0000000  )

     number of k points=    16  Methfessel-Paxton smearing, width (Ry)=  0.0800
                       cart. coord. in units 2pi/alat
        k(    1) = (   0.0000000   0.0000000   0.0000000), wk =   0.0092593
        k(    2) = (  -0.1666667   0.1666667  -0.1666667), wk =   0.0740741
        k(    3) = (  -0.3333333   0.3333333  -0.3333333), wk =   0.0740741
        k(    4) = (   0.5000000  -0.5000000   0.5000000), wk =   0.0370370
        k(    5) = (   0.0000000   0.3333333   0.0000000), wk =   0.0555556
        k(    6) = (  -0.1666667   0.5000000  -0.1666667), wk =   0.2222222
        k(    7) = (   0.6666667  -0.3333333   0.6666667), wk =   0.2222222
        k(    8) = (   0.5000000  -0.1666667   0.5000000), wk =   0.2222222
        k(    9) = (   0.3333333   0.0000000   0.3333333), wk =   0.1111111
        k(   10) = (   0.0000000   0.6666667   0.0000000), wk =   0.0555556
        k(   11) = (   0.8333333  -0.1666667   0.8333333), wk =   0.2222222
        k(   12) = (   0.6666667  -0.0000000   0.6666667), wk =   0.1111111
        k(   13) = (   0.0000000  -1.0000000   0.0000000), wk =   0.0277778
        k(   14) = (   0.6666667  -0.3333333   1.0000000), wk =   0.2222222
        k(   15) = (   0.5000000  -0.1666667   0.8333333), wk =   0.2222222
        k(   16) = (  -0.3333333  -1.0000000   0.0000000), wk =   0.1111111

     Dense  grid:    43895 G-vectors     FFT dimensions: (  50,  50,  50)

     Smooth grid:    15593 G-vectors     FFT dimensions: (  36,  36,  36)

     Estimated max dynamical RAM per process >     160.72 MB

     Initial potential from superposition of free atoms

     starting charge   13.99765, renormalised to   14.00000
     Starting wfcs are    9 randomized atomic wfcs +    2 random wfcs

     total cpu time spent up to now is        2.0 secs

     Self-consistent Calculation

     iteration #  1     ecut=    70.00 Ry     beta= 0.70
     Davidson diagonalization with overlap
     ethr =  1.00E-02,  avg # of iterations =  4.2

     Threshold (ethr) on eigenvalues was too large:
     Diagonalizing with lowered threshold

     Davidson diagonalization with overlap
     ethr =  1.56E-05,  avg # of iterations =  3.6

     total cpu time spent up to now is        4.4 secs

     total energy              =    -135.43060357 Ry
     Harris-Foulkes estimate   =    -135.43190898 Ry
     estimated scf accuracy    <       0.00218881 Ry

     iteration #  2     ecut=    70.00 Ry     beta= 0.70
     Davidson diagonalization with overlap
     ethr =  1.56E-05,  avg # of iterations =  2.8

     total cpu time spent up to now is        5.6 secs

     total energy              =    -135.43104530 Ry
     Harris-Foulkes estimate   =    -135.43115428 Ry
     estimated scf accuracy    <       0.00019330 Ry

     iteration #  3     ecut=    70.00 Ry     beta= 0.70
     Davidson diagonalization with overlap
     ethr =  1.38E-06,  avg # of iterations =  2.1

     total cpu time spent up to now is        6.8 secs

     total energy              =    -135.43108525 Ry
     Harris-Foulkes estimate   =    -135.43108626 Ry
     estimated scf accuracy    <       0.00000952 Ry

     iteration #  4     ecut=    70.00 Ry     beta= 0.70
     Davidson diagonalization with overlap
     ethr =  6.80E-08,  avg # of iterations =  1.8

     total cpu time spent up to now is        7.9 secs

     total energy              =    -135.43108634 Ry
     Harris-Foulkes estimate   =    -135.43108628 Ry
     estimated scf accuracy    <       0.00000008 Ry

     iteration #  5     ecut=    70.00 Ry     beta= 0.70
     Davidson diagonalization with overlap
     ethr =  5.82E-10,  avg # of iterations =  2.4

     total cpu time spent up to now is        9.1 secs

     total energy              =    -135.43108637 Ry
     Harris-Foulkes estimate   =    -135.43108637 Ry
     estimated scf accuracy    <          9.3E-09 Ry

     iteration #  6     ecut=    70.00 Ry     beta= 0.70
     Davidson diagonalization with overlap
     ethr =  6.64E-11,  avg # of iterations =  2.0

     total cpu time spent up to now is       10.3 secs

     End of self-consistent calculation

          k = 0.0000 0.0000 0.0000 (  1917 PWs)   bands (ev):

    -5.2174  -5.2174  -5.2174  -5.0586  -5.0586  -0.1762  19.6486  19.6486
    19.6486  21.9811  23.7597

          k =-0.1667 0.1667-0.1667 (  1940 PWs)   bands (ev):

    -5.2216  -5.1842  -5.1842  -5.0526  -5.0526   0.3839  15.3584  19.0437
    19.0437  21.3660  24.9168

          k =-0.3333 0.3333-0.3333 (  1940 PWs)   bands (ev):

    -5.2422  -5.1884  -5.1884  -4.9666  -4.9666   2.0285  10.3106  18.1186
    18.1186  21.1203  22.8236

          k = 0.5000-0.5000 0.5000 (  1946 PWs)   bands (ev):

    -5.2579  -5.2061  -5.2061  -4.9065  -4.9065   3.7077   7.4527  17.7223
    17.7223  21.3899  21.7358

          k = 0.0000 0.3333 0.0000 (  1960 PWs)   bands (ev):

    -5.2650  -5.1347  -5.1347  -5.1115  -5.0242   0.5696  16.6000  17.3947
    17.3947  20.4371  21.9299

          k =-0.1667 0.5000-0.1667 (  1943 PWs)   bands (ev):

    -5.2761  -5.1654  -5.1052  -5.0516  -4.9516   1.8587  12.1412  16.2448
    16.3426  19.9428  22.4321

          k = 0.6667-0.3333 0.6667 (  1942 PWs)   bands (ev):

    -5.2591  -5.1778  -5.1314  -4.9894  -4.9020   3.8056   8.4166  14.6935
    16.3747  19.6473  24.6636

          k = 0.5000-0.1667 0.5000 (  1943 PWs)   bands (ev):

    -5.2217  -5.1879  -5.1349  -4.9799  -4.9599   3.1753   9.4379  14.0136
    17.5589  20.4423  23.9053

          k = 0.3333 0.0000 0.3333 (  1935 PWs)   bands (ev):

    -5.2181  -5.1755  -5.1244  -5.0917  -4.9896   1.3111  13.3425  14.9774
    19.2845  22.2787  23.0815

          k = 0.0000 0.6667 0.0000 (  1948 PWs)   bands (ev):

    -5.3591  -5.2378  -4.9597  -4.9597  -4.9543   2.7653  11.9521  14.9172
    14.9172  18.3356  19.1029

          k = 0.8333-0.1667 0.8333 (  1941 PWs)   bands (ev):

    -5.3435  -5.2440  -4.9808  -4.9441  -4.8896   4.4455   9.6653  12.3044
    14.6582  18.3303  21.3875

          k = 0.6667-0.0000 0.6667 (  1935 PWs)   bands (ev):

    -5.2835  -5.1051  -5.0506  -5.0238  -4.9493   4.7238   9.9794  10.2418
    15.6847  18.9664  26.1551

          k = 0.0000-1.0000 0.0000 (  1964 PWs)   bands (ev):

    -5.4057  -5.3087  -4.9192  -4.8675  -4.8675   5.2233   8.4322  13.9957
    13.9957  17.3905  18.6672

          k = 0.6667-0.3333 1.0000 (  1930 PWs)   bands (ev):

    -5.2534  -5.2004  -5.0887  -4.9644  -4.9496   3.3854  10.7959  12.6370
    15.0115  21.3602  22.3821

          k = 0.5000-0.1667 0.8333 (  1930 PWs)   bands (ev):

    -5.2251  -5.1794  -5.0745  -5.0281  -4.9051   4.7479   9.1151  11.8867
    13.9486  21.5789  23.5954

          k =-0.3333-1.0000 0.0000 (  1940 PWs)   bands (ev):

    -5.2823  -5.2399  -5.0142  -4.9785  -4.8674   5.3087   9.3500  11.7795
    12.4473  20.9678  21.8564

     the Fermi energy is    11.9885 ev

!    total energy              =    -135.43108637 Ry
     Harris-Foulkes estimate   =    -135.43108637 Ry
     estimated scf accuracy    <          4.4E-10 Ry

     The total energy is the sum of the following terms:

     one-electron contribution =     -31.47540715 Ry
     hartree contribution      =      26.11493983 Ry
     xc contribution           =     -32.62661292 Ry
     ewald contribution        =     -97.43857717 Ry
     smearing contrib. (-TS)   =      -0.00542896 Ry

     convergence has been achieved in   6 iterations

     Writing output data file Pb.save/

     init_run     :      1.21s CPU      1.26s WALL (       1 calls)
     electrons    :      7.71s CPU      8.28s WALL (       1 calls)

     Called by init_run:
     wfcinit      :      0.26s CPU      0.27s WALL (       1 calls)
     potinit      :      0.08s CPU      0.08s WALL (       1 calls)
     hinit0       :      0.76s CPU      0.76s WALL (       1 calls)

     Called by electrons:
     c_bands      :      5.26s CPU      5.28s WALL (       7 calls)
     sum_band     :      1.54s CPU      1.84s WALL (       7 calls)
     v_of_rho     :      0.40s CPU      0.41s WALL (       7 calls)
     newd         :      0.58s CPU      0.86s WALL (       7 calls)
     mix_rho      :      0.04s CPU      0.04s WALL (       7 calls)

     Called by c_bands:
     init_us_2    :      0.12s CPU      0.12s WALL (     240 calls)
     cegterg      :      4.99s CPU      5.01s WALL (     112 calls)

     Called by sum_band:
     sum_band:bec :      0.00s CPU      0.00s WALL (     112 calls)
     addusdens    :      0.65s CPU      0.95s WALL (       7 calls)

     Called by *egterg:
     h_psi        :      4.02s CPU      4.04s WALL (     427 calls)
     s_psi        :      0.20s CPU      0.20s WALL (     427 calls)
     g_psi        :      0.03s CPU      0.03s WALL (     299 calls)
     cdiaghg      :      0.09s CPU      0.09s WALL (     395 calls)

     Called by h_psi:
     h_psi:pot    :      4.00s CPU      4.02s WALL (     427 calls)
     h_psi:calbec :      0.22s CPU      0.22s WALL (     427 calls)
     vloc_psi     :      3.57s CPU      3.59s WALL (     427 calls)
     add_vuspsi   :      0.21s CPU      0.21s WALL (     427 calls)

     General routines
     calbec       :      0.30s CPU      0.30s WALL (     539 calls)
     fft          :      0.18s CPU      0.19s WALL (      90 calls)
     ffts         :      0.02s CPU      0.02s WALL (      14 calls)
     fftw         :      3.73s CPU      3.75s WALL (    7990 calls)
     interpolate  :      0.02s CPU      0.03s WALL (       7 calls)

     Parallel routines

     PWSCF        :      9.71s CPU     10.35s WALL


   This run was terminated on:  19:52:24  30Jun2021            

=------------------------------------------------------------------------------=
   JOB DONE.
=------------------------------------------------------------------------------=
