
     Program PWSCF v.6.4.1 starts on 30Jun2021 at 19:53:11 

     This program is part of the open-source Quantum ESPRESSO suite
     for quantum simulation of materials; please cite
         "P. Giannozzi et al., J. Phys.:Condens. Matter 21 395502 (2009);
         "P. Giannozzi et al., J. Phys.:Condens. Matter 29 465901 (2017);
          URL http://www.quantum-espresso.org", 
     in publications or presentations arising from this work. More details at
     http://www.quantum-espresso.org/quote

     Parallel version (MPI), running on     1 processors

     MPI processes distributed on     1 nodes
     Waiting for input...
     Reading input from standard input

     Current dimensions of program PWSCF are:
     Max number of different atomic species (ntypx) = 10
     Max number of k-points (npk) =  40000
     Max angular momentum in pseudopotentials (lmaxx) =  3
               file Pb.pbe-dn-rrkjus_psl.1.0.0.UPF: wavefunction(s)  6S 5D renormalized

     Subspace diagonalization in iterative solution of the eigenvalue problem:
     a serial algorithm will be used


     G-vector sticks info
     --------------------
     sticks:   dense  smooth     PW     G-vecs:    dense   smooth      PW
     Sum        1639     823    253                43895    15593    2637


     Title: 
     Lead                                                                       


     bravais-lattice index     =            2
     lattice parameter (alat)  =       9.2226  a.u.
     unit-cell volume          =     196.1075 (a.u.)^3
     number of atoms/cell      =            1
     number of atomic types    =            1
     number of electrons       =        14.00
     number of Kohn-Sham states=           11
     kinetic-energy cutoff     =      70.0000  Ry
     charge density cutoff     =     560.0000  Ry
     convergence threshold     =      1.0E-09
     mixing beta               =       0.7000
     number of iterations used =            8  plain     mixing
     Exchange-correlation      = PBE ( 1  4  3  4 0 0)

     celldm(1)=   9.222558  celldm(2)=   0.000000  celldm(3)=   0.000000
     celldm(4)=   0.000000  celldm(5)=   0.000000  celldm(6)=   0.000000

     crystal axes: (cart. coord. in units of alat)
               a(1) = (  -0.500000   0.000000   0.500000 )  
               a(2) = (   0.000000   0.500000   0.500000 )  
               a(3) = (  -0.500000   0.500000   0.000000 )  

     reciprocal axes: (cart. coord. in units 2 pi/alat)
               b(1) = ( -1.000000 -1.000000  1.000000 )  
               b(2) = (  1.000000  1.000000  1.000000 )  
               b(3) = ( -1.000000  1.000000 -1.000000 )  


     PseudoPot. # 1 for Pb read from file:
     /home/elena/qe-6.7/pseudo/Pb.pbe-dn-rrkjus_psl.1.0.0.UPF
     MD5 check sum: 1cf8f5e18580e6a90a35f98a53d336de
     Pseudo is Ultrasoft + core correction, Zval = 14.0
     Generated using "atomic" code by A. Dal Corso v.6.3
     Using radial grid of 1281 points,  6 beta functions with: 
                l(1) =   0
                l(2) =   0
                l(3) =   1
                l(4) =   1
                l(5) =   2
                l(6) =   2
     Q(r) pseudized with 0 coefficients 


     atomic species   valence    mass     pseudopotential
        Pb            14.00   207.20000     Pb( 1.00)

     48 Sym. Ops., with inversion, found



   Cartesian axes

     site n.     atom                  positions (alat units)
         1           Pb  tau(   1) = (   0.0000000   0.0000000   0.0000000  )

     number of k points=    16  Methfessel-Paxton smearing, width (Ry)=  0.0300
                       cart. coord. in units 2pi/alat
        k(    1) = (   0.0000000   0.0000000   0.0000000), wk =   0.0092593
        k(    2) = (  -0.1666667   0.1666667  -0.1666667), wk =   0.0740741
        k(    3) = (  -0.3333333   0.3333333  -0.3333333), wk =   0.0740741
        k(    4) = (   0.5000000  -0.5000000   0.5000000), wk =   0.0370370
        k(    5) = (   0.0000000   0.3333333   0.0000000), wk =   0.0555556
        k(    6) = (  -0.1666667   0.5000000  -0.1666667), wk =   0.2222222
        k(    7) = (   0.6666667  -0.3333333   0.6666667), wk =   0.2222222
        k(    8) = (   0.5000000  -0.1666667   0.5000000), wk =   0.2222222
        k(    9) = (   0.3333333   0.0000000   0.3333333), wk =   0.1111111
        k(   10) = (   0.0000000   0.6666667   0.0000000), wk =   0.0555556
        k(   11) = (   0.8333333  -0.1666667   0.8333333), wk =   0.2222222
        k(   12) = (   0.6666667  -0.0000000   0.6666667), wk =   0.1111111
        k(   13) = (   0.0000000  -1.0000000   0.0000000), wk =   0.0277778
        k(   14) = (   0.6666667  -0.3333333   1.0000000), wk =   0.2222222
        k(   15) = (   0.5000000  -0.1666667   0.8333333), wk =   0.2222222
        k(   16) = (  -0.3333333  -1.0000000   0.0000000), wk =   0.1111111

     Dense  grid:    43895 G-vectors     FFT dimensions: (  50,  50,  50)

     Smooth grid:    15593 G-vectors     FFT dimensions: (  36,  36,  36)

     Estimated max dynamical RAM per process >     160.72 MB

     Initial potential from superposition of free atoms

     starting charge   13.99765, renormalised to   14.00000
     Starting wfcs are    9 randomized atomic wfcs +    2 random wfcs

     total cpu time spent up to now is        2.0 secs

     Self-consistent Calculation

     iteration #  1     ecut=    70.00 Ry     beta= 0.70
     Davidson diagonalization with overlap
     ethr =  1.00E-02,  avg # of iterations =  4.2

     Threshold (ethr) on eigenvalues was too large:
     Diagonalizing with lowered threshold

     Davidson diagonalization with overlap
     ethr =  1.53E-05,  avg # of iterations =  3.6

     total cpu time spent up to now is        4.4 secs

     total energy              =    -135.42704670 Ry
     Harris-Foulkes estimate   =    -135.42825760 Ry
     estimated scf accuracy    <       0.00216871 Ry

     iteration #  2     ecut=    70.00 Ry     beta= 0.70
     Davidson diagonalization with overlap
     ethr =  1.55E-05,  avg # of iterations =  2.8

     total cpu time spent up to now is        5.7 secs

     total energy              =    -135.42746499 Ry
     Harris-Foulkes estimate   =    -135.42756751 Ry
     estimated scf accuracy    <       0.00019480 Ry

     iteration #  3     ecut=    70.00 Ry     beta= 0.70
     Davidson diagonalization with overlap
     ethr =  1.39E-06,  avg # of iterations =  2.1

     total cpu time spent up to now is        6.8 secs

     total energy              =    -135.42750418 Ry
     Harris-Foulkes estimate   =    -135.42750510 Ry
     estimated scf accuracy    <       0.00001122 Ry

     iteration #  4     ecut=    70.00 Ry     beta= 0.70
     Davidson diagonalization with overlap
     ethr =  8.02E-08,  avg # of iterations =  1.8

     total cpu time spent up to now is        7.9 secs

     total energy              =    -135.42750539 Ry
     Harris-Foulkes estimate   =    -135.42750533 Ry
     estimated scf accuracy    <       0.00000008 Ry

     iteration #  5     ecut=    70.00 Ry     beta= 0.70
     Davidson diagonalization with overlap
     ethr =  5.60E-10,  avg # of iterations =  2.2

     total cpu time spent up to now is        9.2 secs

     total energy              =    -135.42750541 Ry
     Harris-Foulkes estimate   =    -135.42750541 Ry
     estimated scf accuracy    <          4.7E-09 Ry

     iteration #  6     ecut=    70.00 Ry     beta= 0.70
     Davidson diagonalization with overlap
     ethr =  3.35E-11,  avg # of iterations =  2.0

     total cpu time spent up to now is       10.5 secs

     End of self-consistent calculation

          k = 0.0000 0.0000 0.0000 (  1917 PWs)   bands (ev):

    -5.2031  -5.2031  -5.2031  -5.0466  -5.0466  -0.1703  19.6537  19.6537
    19.6537  21.9838  23.7725

          k =-0.1667 0.1667-0.1667 (  1940 PWs)   bands (ev):

    -5.2073  -5.1701  -5.1701  -5.0404  -5.0404   0.3899  15.3641  19.0491
    19.0491  21.3701  24.9245

          k =-0.3333 0.3333-0.3333 (  1940 PWs)   bands (ev):

    -5.2281  -5.1752  -5.1752  -4.9534  -4.9534   2.0348  10.3159  18.1241
    18.1241  21.1256  22.8293

          k = 0.5000-0.5000 0.5000 (  1946 PWs)   bands (ev):

    -5.2438  -5.1932  -5.1932  -4.8929  -4.8929   3.7149   7.4571  17.7278
    17.7278  21.3962  21.7407

          k = 0.0000 0.3333 0.0000 (  1960 PWs)   bands (ev):

    -5.2508  -5.1203  -5.1203  -5.0995  -5.0121   0.5756  16.6069  17.3996
    17.3996  20.4402  21.9363

          k =-0.1667 0.5000-0.1667 (  1943 PWs)   bands (ev):

    -5.2619  -5.1529  -5.0917  -5.0376  -4.9385   1.8650  12.1469  16.2502
    16.3475  19.9484  22.4368

          k = 0.6667-0.3333 0.6667 (  1942 PWs)   bands (ev):

    -5.2455  -5.1645  -5.1185  -4.9757  -4.8884   3.8126   8.4212  14.6987
    16.3798  19.6531  24.6689

          k = 0.5000-0.1667 0.5000 (  1943 PWs)   bands (ev):

    -5.2082  -5.1740  -5.1221  -4.9663  -4.9465   3.1819   9.4431  14.0185
    17.5643  20.4482  23.9098

          k = 0.3333 0.0000 0.3333 (  1935 PWs)   bands (ev):

    -5.2038  -5.1620  -5.1101  -5.0797  -4.9767   1.3172  13.3486  14.9819
    19.2906  22.2847  23.0847

          k = 0.0000 0.6667 0.0000 (  1948 PWs)   bands (ev):

    -5.3450  -5.2260  -4.9451  -4.9451  -4.9421   2.7716  11.9579  14.9218
    14.9218  18.3432  19.1062

          k = 0.8333-0.1667 0.8333 (  1941 PWs)   bands (ev):

    -5.3296  -5.2319  -4.9681  -4.9296  -4.8756   4.4527   9.6702  12.3092
    14.6629  18.3368  21.3921

          k = 0.6667-0.0000 0.6667 (  1935 PWs)   bands (ev):

    -5.2703  -5.0922  -5.0362  -5.0117  -4.9347   4.7312   9.9846  10.2460
    15.6897  18.9724  26.1599

          k = 0.0000-1.0000 0.0000 (  1964 PWs)   bands (ev):

    -5.3917  -5.2969  -4.9070  -4.8529  -4.8529   5.2312   8.4362  14.0002
    14.0002  17.3987  18.6705

          k = 0.6667-0.3333 1.0000 (  1930 PWs)   bands (ev):

    -5.2392  -5.1882  -5.0755  -4.9499  -4.9365   3.3920  10.8015  12.6413
    15.0168  21.3675  22.3855

          k = 0.5000-0.1667 0.8333 (  1930 PWs)   bands (ev):

    -5.2125  -5.1653  -5.0609  -5.0157  -4.8908   4.7554   9.1196  11.8914
    13.9539  21.5856  23.5994

          k =-0.3333-1.0000 0.0000 (  1940 PWs)   bands (ev):

    -5.2681  -5.2281  -4.9997  -4.9664  -4.8528   5.3166   9.3541  11.7838
    12.4528  20.9753  21.8598

     the Fermi energy is    12.0683 ev

!    total energy              =    -135.42750541 Ry
     Harris-Foulkes estimate   =    -135.42750541 Ry
     estimated scf accuracy    <          2.5E-10 Ry

     The total energy is the sum of the following terms:

     one-electron contribution =     -31.48675293 Ry
     hartree contribution      =      26.12712799 Ry
     xc contribution           =     -32.62811909 Ry
     ewald contribution        =     -97.43857717 Ry
     smearing contrib. (-TS)   =      -0.00118421 Ry

     convergence has been achieved in   6 iterations

     Writing output data file Pb.save/

     init_run     :      1.21s CPU      1.27s WALL (       1 calls)
     electrons    :      7.75s CPU      8.42s WALL (       1 calls)

     Called by init_run:
     wfcinit      :      0.27s CPU      0.27s WALL (       1 calls)
     potinit      :      0.07s CPU      0.08s WALL (       1 calls)
     hinit0       :      0.76s CPU      0.76s WALL (       1 calls)

     Called by electrons:
     c_bands      :      5.34s CPU      5.36s WALL (       7 calls)
     sum_band     :      1.51s CPU      1.88s WALL (       7 calls)
     v_of_rho     :      0.40s CPU      0.41s WALL (       7 calls)
     newd         :      0.58s CPU      0.88s WALL (       7 calls)
     mix_rho      :      0.03s CPU      0.04s WALL (       7 calls)

     Called by c_bands:
     init_us_2    :      0.12s CPU      0.12s WALL (     240 calls)
     cegterg      :      5.06s CPU      5.09s WALL (     112 calls)

     Called by sum_band:
     sum_band:bec :      0.00s CPU      0.00s WALL (     112 calls)
     addusdens    :      0.59s CPU      0.96s WALL (       7 calls)

     Called by *egterg:
     h_psi        :      4.08s CPU      4.10s WALL (     427 calls)
     s_psi        :      0.20s CPU      0.21s WALL (     427 calls)
     g_psi        :      0.03s CPU      0.03s WALL (     299 calls)
     cdiaghg      :      0.09s CPU      0.09s WALL (     395 calls)

     Called by h_psi:
     h_psi:pot    :      4.07s CPU      4.08s WALL (     427 calls)
     h_psi:calbec :      0.23s CPU      0.23s WALL (     427 calls)
     vloc_psi     :      3.63s CPU      3.65s WALL (     427 calls)
     add_vuspsi   :      0.21s CPU      0.21s WALL (     427 calls)

     General routines
     calbec       :      0.30s CPU      0.30s WALL (     539 calls)
     fft          :      0.18s CPU      0.19s WALL (      90 calls)
     ffts         :      0.02s CPU      0.02s WALL (      14 calls)
     fftw         :      3.80s CPU      3.81s WALL (    7962 calls)
     interpolate  :      0.02s CPU      0.03s WALL (       7 calls)

     Parallel routines

     PWSCF        :      9.75s CPU     10.49s WALL


   This run was terminated on:  19:53:21  30Jun2021            

=------------------------------------------------------------------------------=
   JOB DONE.
=------------------------------------------------------------------------------=
