
     Program PWSCF v.6.4.1 starts on 30Jun2021 at 19:53:48 

     This program is part of the open-source Quantum ESPRESSO suite
     for quantum simulation of materials; please cite
         "P. Giannozzi et al., J. Phys.:Condens. Matter 21 395502 (2009);
         "P. Giannozzi et al., J. Phys.:Condens. Matter 29 465901 (2017);
          URL http://www.quantum-espresso.org", 
     in publications or presentations arising from this work. More details at
     http://www.quantum-espresso.org/quote

     Parallel version (MPI), running on     1 processors

     MPI processes distributed on     1 nodes
     Waiting for input...
     Reading input from standard input

     Current dimensions of program PWSCF are:
     Max number of different atomic species (ntypx) = 10
     Max number of k-points (npk) =  40000
     Max angular momentum in pseudopotentials (lmaxx) =  3
               file Pb.pbe-dn-rrkjus_psl.1.0.0.UPF: wavefunction(s)  6S 5D renormalized

     Subspace diagonalization in iterative solution of the eigenvalue problem:
     a serial algorithm will be used


     G-vector sticks info
     --------------------
     sticks:   dense  smooth     PW     G-vecs:    dense   smooth      PW
     Sum        1639     823    253                43895    15593    2637


     Title: 
     Lead                                                                       


     bravais-lattice index     =            2
     lattice parameter (alat)  =       9.2226  a.u.
     unit-cell volume          =     196.1075 (a.u.)^3
     number of atoms/cell      =            1
     number of atomic types    =            1
     number of electrons       =        14.00
     number of Kohn-Sham states=           11
     kinetic-energy cutoff     =      70.0000  Ry
     charge density cutoff     =     560.0000  Ry
     convergence threshold     =      1.0E-09
     mixing beta               =       0.7000
     number of iterations used =            8  plain     mixing
     Exchange-correlation      = PBE ( 1  4  3  4 0 0)

     celldm(1)=   9.222558  celldm(2)=   0.000000  celldm(3)=   0.000000
     celldm(4)=   0.000000  celldm(5)=   0.000000  celldm(6)=   0.000000

     crystal axes: (cart. coord. in units of alat)
               a(1) = (  -0.500000   0.000000   0.500000 )  
               a(2) = (   0.000000   0.500000   0.500000 )  
               a(3) = (  -0.500000   0.500000   0.000000 )  

     reciprocal axes: (cart. coord. in units 2 pi/alat)
               b(1) = ( -1.000000 -1.000000  1.000000 )  
               b(2) = (  1.000000  1.000000  1.000000 )  
               b(3) = ( -1.000000  1.000000 -1.000000 )  


     PseudoPot. # 1 for Pb read from file:
     /home/elena/qe-6.7/pseudo/Pb.pbe-dn-rrkjus_psl.1.0.0.UPF
     MD5 check sum: 1cf8f5e18580e6a90a35f98a53d336de
     Pseudo is Ultrasoft + core correction, Zval = 14.0
     Generated using "atomic" code by A. Dal Corso v.6.3
     Using radial grid of 1281 points,  6 beta functions with: 
                l(1) =   0
                l(2) =   0
                l(3) =   1
                l(4) =   1
                l(5) =   2
                l(6) =   2
     Q(r) pseudized with 0 coefficients 


     atomic species   valence    mass     pseudopotential
        Pb            14.00   207.20000     Pb( 1.00)

     48 Sym. Ops., with inversion, found



   Cartesian axes

     site n.     atom                  positions (alat units)
         1           Pb  tau(   1) = (   0.0000000   0.0000000   0.0000000  )

     number of k points=    29  Methfessel-Paxton smearing, width (Ry)=  0.1000
                       cart. coord. in units 2pi/alat
        k(    1) = (   0.0000000   0.0000000   0.0000000), wk =   0.0039062
        k(    2) = (  -0.1250000   0.1250000  -0.1250000), wk =   0.0312500
        k(    3) = (  -0.2500000   0.2500000  -0.2500000), wk =   0.0312500
        k(    4) = (  -0.3750000   0.3750000  -0.3750000), wk =   0.0312500
        k(    5) = (   0.5000000  -0.5000000   0.5000000), wk =   0.0156250
        k(    6) = (   0.0000000   0.2500000   0.0000000), wk =   0.0234375
        k(    7) = (  -0.1250000   0.3750000  -0.1250000), wk =   0.0937500
        k(    8) = (  -0.2500000   0.5000000  -0.2500000), wk =   0.0937500
        k(    9) = (   0.6250000  -0.3750000   0.6250000), wk =   0.0937500
        k(   10) = (   0.5000000  -0.2500000   0.5000000), wk =   0.0937500
        k(   11) = (   0.3750000  -0.1250000   0.3750000), wk =   0.0937500
        k(   12) = (   0.2500000   0.0000000   0.2500000), wk =   0.0468750
        k(   13) = (   0.0000000   0.5000000   0.0000000), wk =   0.0234375
        k(   14) = (  -0.1250000   0.6250000  -0.1250000), wk =   0.0937500
        k(   15) = (   0.7500000  -0.2500000   0.7500000), wk =   0.0937500
        k(   16) = (   0.6250000  -0.1250000   0.6250000), wk =   0.0937500
        k(   17) = (   0.5000000   0.0000000   0.5000000), wk =   0.0468750
        k(   18) = (   0.0000000   0.7500000   0.0000000), wk =   0.0234375
        k(   19) = (   0.8750000  -0.1250000   0.8750000), wk =   0.0937500
        k(   20) = (   0.7500000   0.0000000   0.7500000), wk =   0.0468750
        k(   21) = (   0.0000000  -1.0000000   0.0000000), wk =   0.0117188
        k(   22) = (  -0.2500000   0.5000000   0.0000000), wk =   0.0937500
        k(   23) = (   0.6250000  -0.3750000   0.8750000), wk =   0.1875000
        k(   24) = (   0.5000000  -0.2500000   0.7500000), wk =   0.0937500
        k(   25) = (   0.7500000  -0.2500000   1.0000000), wk =   0.0937500
        k(   26) = (   0.6250000  -0.1250000   0.8750000), wk =   0.1875000
        k(   27) = (   0.5000000   0.0000000   0.7500000), wk =   0.0937500
        k(   28) = (  -0.2500000  -1.0000000   0.0000000), wk =   0.0468750
        k(   29) = (  -0.5000000  -1.0000000   0.0000000), wk =   0.0234375

     Dense  grid:    43895 G-vectors     FFT dimensions: (  50,  50,  50)

     Smooth grid:    15593 G-vectors     FFT dimensions: (  36,  36,  36)

     Estimated max dynamical RAM per process >     164.96 MB

     Initial potential from superposition of free atoms

     starting charge   13.99765, renormalised to   14.00000
     Starting wfcs are    9 randomized atomic wfcs +    2 random wfcs

     total cpu time spent up to now is        2.7 secs

     Self-consistent Calculation

     iteration #  1     ecut=    70.00 Ry     beta= 0.70
     Davidson diagonalization with overlap
     ethr =  1.00E-02,  avg # of iterations =  4.1

     Threshold (ethr) on eigenvalues was too large:
     Diagonalizing with lowered threshold

     Davidson diagonalization with overlap
     ethr =  1.67E-05,  avg # of iterations =  3.8

     total cpu time spent up to now is        7.4 secs

     total energy              =    -135.43473344 Ry
     Harris-Foulkes estimate   =    -135.43613884 Ry
     estimated scf accuracy    <       0.00235113 Ry

     iteration #  2     ecut=    70.00 Ry     beta= 0.70
     Davidson diagonalization with overlap
     ethr =  1.68E-05,  avg # of iterations =  2.4

     total cpu time spent up to now is        9.3 secs

     total energy              =    -135.43520749 Ry
     Harris-Foulkes estimate   =    -135.43532439 Ry
     estimated scf accuracy    <       0.00020635 Ry

     iteration #  3     ecut=    70.00 Ry     beta= 0.70
     Davidson diagonalization with overlap
     ethr =  1.47E-06,  avg # of iterations =  2.3

     total cpu time spent up to now is       11.4 secs

     total energy              =    -135.43525019 Ry
     Harris-Foulkes estimate   =    -135.43525126 Ry
     estimated scf accuracy    <       0.00000984 Ry

     iteration #  4     ecut=    70.00 Ry     beta= 0.70
     Davidson diagonalization with overlap
     ethr =  7.03E-08,  avg # of iterations =  1.9

     total cpu time spent up to now is       13.1 secs

     total energy              =    -135.43525137 Ry
     Harris-Foulkes estimate   =    -135.43525131 Ry
     estimated scf accuracy    <       0.00000010 Ry

     iteration #  5     ecut=    70.00 Ry     beta= 0.70
     Davidson diagonalization with overlap
     ethr =  7.01E-10,  avg # of iterations =  2.1

     total cpu time spent up to now is       15.1 secs

     total energy              =    -135.43525140 Ry
     Harris-Foulkes estimate   =    -135.43525141 Ry
     estimated scf accuracy    <       0.00000001 Ry

     iteration #  6     ecut=    70.00 Ry     beta= 0.70
     Davidson diagonalization with overlap
     ethr =  9.15E-11,  avg # of iterations =  2.0

     total cpu time spent up to now is       17.0 secs

     End of self-consistent calculation

          k = 0.0000 0.0000 0.0000 (  1917 PWs)   bands (ev):

    -5.2316  -5.2316  -5.2316  -5.0726  -5.0726  -0.1811  19.6443  19.6443
    19.6443  21.9769  23.7517

          k =-0.1250 0.1250-0.1250 (  1946 PWs)   bands (ev):

    -5.2336  -5.2092  -5.2092  -5.0723  -5.0723   0.1336  16.7219  19.2711
    19.2711  21.5084  24.8318

          k =-0.2500 0.2500-0.2500 (  1949 PWs)   bands (ev):

    -5.2442  -5.1917  -5.1917  -5.0331  -5.0331   1.0769  12.7000  18.5471
    18.5471  21.1640  23.7899

          k =-0.3750 0.3750-0.3750 (  1925 PWs)   bands (ev):

    -5.2623  -5.2092  -5.2092  -4.9566  -4.9566   2.5582   9.2576  17.9465
    17.9465  21.1489  22.4268

          k = 0.5000-0.5000 0.5000 (  1946 PWs)   bands (ev):

    -5.2720  -5.2201  -5.2201  -4.9208  -4.9208   3.7014   7.4494  17.7180
    17.7180  21.3860  21.7297

          k = 0.0000 0.2500 0.0000 (  1949 PWs)   bands (ev):

    -5.2596  -5.1836  -5.1836  -5.1025  -5.0524   0.2382  17.6147  18.1393
    18.1393  20.8937  23.2940

          k =-0.1250 0.3750-0.1250 (  1944 PWs)   bands (ev):

    -5.2715  -5.1633  -5.1478  -5.1005  -5.0152   0.9722  14.0993  17.1901
    17.6659  20.9804  22.2316

          k =-0.2500 0.5000-0.2500 (  1952 PWs)   bands (ev):

    -5.2687  -5.1915  -5.1576  -5.0351  -4.9465   2.2884  10.5267  16.6087
    16.7204  20.2394  23.9141

          k = 0.6250-0.3750 0.6250 (  1943 PWs)   bands (ev):

    -5.2618  -5.2105  -5.1766  -4.9736  -4.9183   3.7428   8.0155  15.6621
    16.8543  20.1072  23.6940

          k = 0.5000-0.2500 0.5000 (  1940 PWs)   bands (ev):

    -5.2431  -5.2153  -5.1782  -4.9642  -4.9538   3.3217   8.6590  15.1881
    17.6065  20.6155  23.1774

          k = 0.3750-0.1250 0.3750 (  1943 PWs)   bands (ev):

    -5.2341  -5.1977  -5.1607  -5.0566  -4.9843   1.7928  11.6526  15.3330
    18.7951  21.7245  22.9276

          k = 0.2500 0.0000 0.2500 (  1943 PWs)   bands (ev):

    -5.2386  -5.1852  -5.1768  -5.0973  -5.0354   0.6585  15.0110  16.4495
    19.7130  22.3380  23.4893

          k = 0.0000 0.5000 0.0000 (  1964 PWs)   bands (ev):

    -5.3264  -5.1856  -5.0632  -5.0632  -5.0034   1.4929  14.3568  16.0009
    16.0009  19.6529  19.7166

          k =-0.1250 0.6250-0.1250 (  1941 PWs)   bands (ev):

    -5.3354  -5.2197  -5.0488  -5.0143  -4.9415   2.6043  11.7826  14.5536
    15.3668  18.9636  20.8934

          k = 0.7500-0.2500 0.7500 (  1941 PWs)   bands (ev):

    -5.3109  -5.1935  -5.0699  -5.0177  -4.9114   4.0322   9.3291  12.9529
    15.4233  18.8833  23.8978

          k = 0.6250-0.1250 0.6250 (  1944 PWs)   bands (ev):

    -5.2776  -5.1376  -5.0859  -5.0418  -4.9598   4.3420   8.9711  11.9922
    16.1848  19.3284  26.0342

          k = 0.5000 0.0000 0.5000 (  1947 PWs)   bands (ev):

    -5.2338  -5.1786  -5.0944  -5.0495  -4.9994   3.0336  10.7938  12.3165
    17.5049  20.2974  25.1423

          k = 0.0000 0.7500 0.0000 (  1956 PWs)   bands (ev):

    -5.3925  -5.2803  -4.9539  -4.9365  -4.9365   3.4916  10.7663  14.5161
    14.5161  17.8994  18.9067

          k = 0.8750-0.1250 0.8750 (  1951 PWs)   bands (ev):

    -5.3810  -5.2861  -4.9659  -4.9278  -4.8987   4.6904   9.3229  12.6661
    14.3698  18.0938  20.2786

          k = 0.7500 0.0000 0.7500 (  1926 PWs)   bands (ev):

    -5.3316  -5.2026  -5.0004  -4.9984  -4.9294   5.1244   9.4657  10.5670
    14.9659  18.5050  23.6067

          k = 0.0000-1.0000 0.0000 (  1964 PWs)   bands (ev):

    -5.4198  -5.3223  -4.9333  -4.8821  -4.8821   5.2165   8.4288  13.9922
    13.9922  17.3856  18.6627

          k =-0.2500 0.5000 0.0000 (  1944 PWs)   bands (ev):

    -5.2759  -5.1832  -5.1136  -5.0679  -4.9767   1.8978  12.6124  14.3876
    17.1330  21.2194  21.8099

          k = 0.6250-0.3750 0.8750 (  1944 PWs)   bands (ev):

    -5.2490  -5.2083  -5.1118  -5.0227  -4.9478   3.3036   9.9777  13.4536
    15.8518  21.0113  23.3835

          k = 0.5000-0.2500 0.7500 (  1918 PWs)   bands (ev):

    -5.2372  -5.2177  -5.0947  -5.0288  -4.9289   4.3164   8.4137  13.3560
    15.2653  20.9087  23.1954

          k = 0.7500-0.2500 1.0000 (  1944 PWs)   bands (ev):

    -5.3268  -5.2454  -5.0457  -4.9428  -4.9383   3.8010  10.4998  12.9963
    13.9548  20.0591  20.9813

          k = 0.6250-0.1250 0.8750 (  1930 PWs)   bands (ev):

    -5.2818  -5.2025  -5.0742  -5.0048  -4.9071   4.9085   9.5031  11.3815
    13.5905  20.6282  23.7928

          k = 0.5000 0.0000 0.7500 (  1930 PWs)   bands (ev):

    -5.2469  -5.1614  -5.1136  -5.0240  -4.9416   4.5351   9.9989  10.9118
    14.4070  21.2442  24.7711

          k =-0.2500-1.0000 0.0000 (  1940 PWs)   bands (ev):

    -5.3483  -5.2794  -4.9697  -4.9690  -4.8820   5.2725   8.9519  12.5068
    12.8340  19.6926  20.6927

          k =-0.5000-1.0000 0.0000 (  1912 PWs)   bands (ev):

    -5.2218  -5.1663  -5.1663  -5.0210  -4.8818   5.3324  10.4173  10.4173
    12.1079  23.0926  24.4568

     the Fermi energy is    11.9364 ev

!    total energy              =    -135.43525140 Ry
     Harris-Foulkes estimate   =    -135.43525140 Ry
     estimated scf accuracy    <          6.0E-10 Ry

     The total energy is the sum of the following terms:

     one-electron contribution =     -31.47720460 Ry
     hartree contribution      =      26.10246596 Ry
     xc contribution           =     -32.62491198 Ry
     ewald contribution        =     -97.43857717 Ry
     smearing contrib. (-TS)   =       0.00297638 Ry

     convergence has been achieved in   6 iterations

     Writing output data file Pb.save/

     init_run     :      1.66s CPU      1.76s WALL (       1 calls)
     electrons    :     13.69s CPU     14.31s WALL (       1 calls)

     Called by init_run:
     wfcinit      :      0.48s CPU      0.49s WALL (       1 calls)
     potinit      :      0.09s CPU      0.09s WALL (       1 calls)
     hinit0       :      0.98s CPU      1.00s WALL (       1 calls)

     Called by electrons:
     c_bands      :     10.44s CPU     10.54s WALL (       7 calls)
     sum_band     :      2.28s CPU      2.59s WALL (       7 calls)
     v_of_rho     :      0.41s CPU      0.43s WALL (       7 calls)
     newd         :      0.64s CPU      0.88s WALL (       7 calls)
     mix_rho      :      0.03s CPU      0.04s WALL (       7 calls)

     Called by c_bands:
     init_us_2    :      0.22s CPU      0.23s WALL (     435 calls)
     cegterg      :      9.92s CPU     10.01s WALL (     203 calls)

     Called by sum_band:
     sum_band:bec :      0.00s CPU      0.00s WALL (     203 calls)
     addusdens    :      0.66s CPU      0.95s WALL (       7 calls)

     Called by *egterg:
     h_psi        :      7.99s CPU      8.05s WALL (     774 calls)
     s_psi        :      0.39s CPU      0.39s WALL (     774 calls)
     g_psi        :      0.05s CPU      0.05s WALL (     542 calls)
     cdiaghg      :      0.17s CPU      0.18s WALL (     716 calls)

     Called by h_psi:
     h_psi:pot    :      7.96s CPU      8.02s WALL (     774 calls)
     h_psi:calbec :      0.44s CPU      0.44s WALL (     774 calls)
     vloc_psi     :      7.11s CPU      7.17s WALL (     774 calls)
     add_vuspsi   :      0.41s CPU      0.41s WALL (     774 calls)

     General routines
     calbec       :      0.58s CPU      0.59s WALL (     977 calls)
     fft          :      0.19s CPU      0.20s WALL (      90 calls)
     ffts         :      0.02s CPU      0.02s WALL (      14 calls)
     fftw         :      7.30s CPU      7.37s WALL (   14511 calls)
     interpolate  :      0.03s CPU      0.03s WALL (       7 calls)

     Parallel routines

     PWSCF        :     16.32s CPU     17.05s WALL


   This run was terminated on:  19:54: 5  30Jun2021            

=------------------------------------------------------------------------------=
   JOB DONE.
=------------------------------------------------------------------------------=
