
     Program PWSCF v.6.4.1 starts on 30Jun2021 at 19:56: 1 

     This program is part of the open-source Quantum ESPRESSO suite
     for quantum simulation of materials; please cite
         "P. Giannozzi et al., J. Phys.:Condens. Matter 21 395502 (2009);
         "P. Giannozzi et al., J. Phys.:Condens. Matter 29 465901 (2017);
          URL http://www.quantum-espresso.org", 
     in publications or presentations arising from this work. More details at
     http://www.quantum-espresso.org/quote

     Parallel version (MPI), running on     1 processors

     MPI processes distributed on     1 nodes
     Waiting for input...
     Reading input from standard input

     Current dimensions of program PWSCF are:
     Max number of different atomic species (ntypx) = 10
     Max number of k-points (npk) =  40000
     Max angular momentum in pseudopotentials (lmaxx) =  3
               file Pb.pbe-dn-rrkjus_psl.1.0.0.UPF: wavefunction(s)  6S 5D renormalized

     Subspace diagonalization in iterative solution of the eigenvalue problem:
     a serial algorithm will be used


     G-vector sticks info
     --------------------
     sticks:   dense  smooth     PW     G-vecs:    dense   smooth      PW
     Sum        1639     823    253                43895    15593    2637


     Title: 
     Lead                                                                       


     bravais-lattice index     =            2
     lattice parameter (alat)  =       9.2226  a.u.
     unit-cell volume          =     196.1075 (a.u.)^3
     number of atoms/cell      =            1
     number of atomic types    =            1
     number of electrons       =        14.00
     number of Kohn-Sham states=           11
     kinetic-energy cutoff     =      70.0000  Ry
     charge density cutoff     =     560.0000  Ry
     convergence threshold     =      1.0E-09
     mixing beta               =       0.7000
     number of iterations used =            8  plain     mixing
     Exchange-correlation      = PBE ( 1  4  3  4 0 0)

     celldm(1)=   9.222558  celldm(2)=   0.000000  celldm(3)=   0.000000
     celldm(4)=   0.000000  celldm(5)=   0.000000  celldm(6)=   0.000000

     crystal axes: (cart. coord. in units of alat)
               a(1) = (  -0.500000   0.000000   0.500000 )  
               a(2) = (   0.000000   0.500000   0.500000 )  
               a(3) = (  -0.500000   0.500000   0.000000 )  

     reciprocal axes: (cart. coord. in units 2 pi/alat)
               b(1) = ( -1.000000 -1.000000  1.000000 )  
               b(2) = (  1.000000  1.000000  1.000000 )  
               b(3) = ( -1.000000  1.000000 -1.000000 )  


     PseudoPot. # 1 for Pb read from file:
     /home/elena/qe-6.7/pseudo/Pb.pbe-dn-rrkjus_psl.1.0.0.UPF
     MD5 check sum: 1cf8f5e18580e6a90a35f98a53d336de
     Pseudo is Ultrasoft + core correction, Zval = 14.0
     Generated using "atomic" code by A. Dal Corso v.6.3
     Using radial grid of 1281 points,  6 beta functions with: 
                l(1) =   0
                l(2) =   0
                l(3) =   1
                l(4) =   1
                l(5) =   2
                l(6) =   2
     Q(r) pseudized with 0 coefficients 


     atomic species   valence    mass     pseudopotential
        Pb            14.00   207.20000     Pb( 1.00)

     48 Sym. Ops., with inversion, found



   Cartesian axes

     site n.     atom                  positions (alat units)
         1           Pb  tau(   1) = (   0.0000000   0.0000000   0.0000000  )

     number of k points=    29  Methfessel-Paxton smearing, width (Ry)=  0.0200
                       cart. coord. in units 2pi/alat
        k(    1) = (   0.0000000   0.0000000   0.0000000), wk =   0.0039062
        k(    2) = (  -0.1250000   0.1250000  -0.1250000), wk =   0.0312500
        k(    3) = (  -0.2500000   0.2500000  -0.2500000), wk =   0.0312500
        k(    4) = (  -0.3750000   0.3750000  -0.3750000), wk =   0.0312500
        k(    5) = (   0.5000000  -0.5000000   0.5000000), wk =   0.0156250
        k(    6) = (   0.0000000   0.2500000   0.0000000), wk =   0.0234375
        k(    7) = (  -0.1250000   0.3750000  -0.1250000), wk =   0.0937500
        k(    8) = (  -0.2500000   0.5000000  -0.2500000), wk =   0.0937500
        k(    9) = (   0.6250000  -0.3750000   0.6250000), wk =   0.0937500
        k(   10) = (   0.5000000  -0.2500000   0.5000000), wk =   0.0937500
        k(   11) = (   0.3750000  -0.1250000   0.3750000), wk =   0.0937500
        k(   12) = (   0.2500000   0.0000000   0.2500000), wk =   0.0468750
        k(   13) = (   0.0000000   0.5000000   0.0000000), wk =   0.0234375
        k(   14) = (  -0.1250000   0.6250000  -0.1250000), wk =   0.0937500
        k(   15) = (   0.7500000  -0.2500000   0.7500000), wk =   0.0937500
        k(   16) = (   0.6250000  -0.1250000   0.6250000), wk =   0.0937500
        k(   17) = (   0.5000000   0.0000000   0.5000000), wk =   0.0468750
        k(   18) = (   0.0000000   0.7500000   0.0000000), wk =   0.0234375
        k(   19) = (   0.8750000  -0.1250000   0.8750000), wk =   0.0937500
        k(   20) = (   0.7500000   0.0000000   0.7500000), wk =   0.0468750
        k(   21) = (   0.0000000  -1.0000000   0.0000000), wk =   0.0117188
        k(   22) = (  -0.2500000   0.5000000   0.0000000), wk =   0.0937500
        k(   23) = (   0.6250000  -0.3750000   0.8750000), wk =   0.1875000
        k(   24) = (   0.5000000  -0.2500000   0.7500000), wk =   0.0937500
        k(   25) = (   0.7500000  -0.2500000   1.0000000), wk =   0.0937500
        k(   26) = (   0.6250000  -0.1250000   0.8750000), wk =   0.1875000
        k(   27) = (   0.5000000   0.0000000   0.7500000), wk =   0.0937500
        k(   28) = (  -0.2500000  -1.0000000   0.0000000), wk =   0.0468750
        k(   29) = (  -0.5000000  -1.0000000   0.0000000), wk =   0.0234375

     Dense  grid:    43895 G-vectors     FFT dimensions: (  50,  50,  50)

     Smooth grid:    15593 G-vectors     FFT dimensions: (  36,  36,  36)

     Estimated max dynamical RAM per process >     164.96 MB

     Initial potential from superposition of free atoms

     starting charge   13.99765, renormalised to   14.00000
     Starting wfcs are    9 randomized atomic wfcs +    2 random wfcs

     total cpu time spent up to now is        2.2 secs

     Self-consistent Calculation

     iteration #  1     ecut=    70.00 Ry     beta= 0.70
     Davidson diagonalization with overlap
     ethr =  1.00E-02,  avg # of iterations =  4.1

     Threshold (ethr) on eigenvalues was too large:
     Diagonalizing with lowered threshold

     Davidson diagonalization with overlap
     ethr =  1.60E-05,  avg # of iterations =  3.9

     total cpu time spent up to now is        6.4 secs

     total energy              =    -135.43581464 Ry
     Harris-Foulkes estimate   =    -135.43716688 Ry
     estimated scf accuracy    <       0.00225708 Ry

     iteration #  2     ecut=    70.00 Ry     beta= 0.70
     Davidson diagonalization with overlap
     ethr =  1.61E-05,  avg # of iterations =  2.4

     total cpu time spent up to now is        8.6 secs

     total energy              =    -135.43627049 Ry
     Harris-Foulkes estimate   =    -135.43638280 Ry
     estimated scf accuracy    <       0.00019814 Ry

     iteration #  3     ecut=    70.00 Ry     beta= 0.70
     Davidson diagonalization with overlap
     ethr =  1.42E-06,  avg # of iterations =  2.2

     total cpu time spent up to now is       10.5 secs

     total energy              =    -135.43631150 Ry
     Harris-Foulkes estimate   =    -135.43631254 Ry
     estimated scf accuracy    <       0.00000947 Ry

     iteration #  4     ecut=    70.00 Ry     beta= 0.70
     Davidson diagonalization with overlap
     ethr =  6.76E-08,  avg # of iterations =  1.9

     total cpu time spent up to now is       12.1 secs

     total energy              =    -135.43631263 Ry
     Harris-Foulkes estimate   =    -135.43631257 Ry
     estimated scf accuracy    <       0.00000009 Ry

     iteration #  5     ecut=    70.00 Ry     beta= 0.70
     Davidson diagonalization with overlap
     ethr =  6.63E-10,  avg # of iterations =  2.1

     total cpu time spent up to now is       14.1 secs

     total energy              =    -135.43631266 Ry
     Harris-Foulkes estimate   =    -135.43631267 Ry
     estimated scf accuracy    <       0.00000001 Ry

     iteration #  6     ecut=    70.00 Ry     beta= 0.70
     Davidson diagonalization with overlap
     ethr =  8.60E-11,  avg # of iterations =  2.0

     total cpu time spent up to now is       16.1 secs

     End of self-consistent calculation

          k = 0.0000 0.0000 0.0000 (  1917 PWs)   bands (ev):

    -5.2245  -5.2245  -5.2245  -5.0655  -5.0655  -0.1788  19.6464  19.6464
    19.6465  21.9781  23.7542

          k =-0.1250 0.1250-0.1250 (  1946 PWs)   bands (ev):

    -5.2265  -5.2021  -5.2021  -5.0652  -5.0652   0.1360  16.7241  19.2734
    19.2734  21.5099  24.8339

          k =-0.2500 0.2500-0.2500 (  1949 PWs)   bands (ev):

    -5.2371  -5.1846  -5.1846  -5.0260  -5.0260   1.0794  12.7021  18.5493
    18.5493  21.1657  23.7913

          k =-0.3750 0.3750-0.3750 (  1925 PWs)   bands (ev):

    -5.2553  -5.2022  -5.2022  -4.9494  -4.9494   2.5608   9.2595  17.9488
    17.9488  21.1505  22.4286

          k = 0.5000-0.5000 0.5000 (  1946 PWs)   bands (ev):

    -5.2650  -5.2131  -5.2131  -4.9136  -4.9136   3.7045   7.4509  17.7202
    17.7202  21.3868  21.7322

          k = 0.0000 0.2500 0.0000 (  1949 PWs)   bands (ev):

    -5.2525  -5.1765  -5.1765  -5.0955  -5.0453   0.2405  17.6172  18.1414
    18.1414  20.8952  23.2954

          k =-0.1250 0.3750-0.1250 (  1944 PWs)   bands (ev):

    -5.2645  -5.1562  -5.1407  -5.0934  -5.0081   0.9746  14.1015  17.1922
    17.6683  20.9819  22.2329

          k =-0.2500 0.5000-0.2500 (  1952 PWs)   bands (ev):

    -5.2617  -5.1845  -5.1505  -5.0280  -4.9393   2.2910  10.5287  16.6110
    16.7225  20.2407  23.9160

          k = 0.6250-0.3750 0.6250 (  1943 PWs)   bands (ev):

    -5.2547  -5.2034  -5.1695  -4.9664  -4.9110   3.7458   8.0170  15.6643
    16.8564  20.1085  23.6962

          k = 0.5000-0.2500 0.5000 (  1940 PWs)   bands (ev):

    -5.2361  -5.2082  -5.1712  -4.9570  -4.9466   3.3245   8.6607  15.1903
    17.6088  20.6167  23.1795

          k = 0.3750-0.1250 0.3750 (  1943 PWs)   bands (ev):

    -5.2270  -5.1906  -5.1536  -5.0494  -4.9771   1.7953  11.6547  15.3351
    18.7974  21.7257  22.9295

          k = 0.2500 0.0000 0.2500 (  1943 PWs)   bands (ev):

    -5.2315  -5.1781  -5.1697  -5.0903  -5.0283   0.6609  15.0132  16.4515
    19.7154  22.3395  23.4905

          k = 0.0000 0.5000 0.0000 (  1964 PWs)   bands (ev):

    -5.3193  -5.1786  -5.0560  -5.0560  -4.9963   1.4953  14.3593  16.0029
    16.0029  19.6546  19.7178

          k =-0.1250 0.6250-0.1250 (  1941 PWs)   bands (ev):

    -5.3283  -5.2128  -5.0416  -5.0071  -4.9344   2.6069  11.7848  14.5557
    15.3688  18.9650  20.8951

          k = 0.7500-0.2500 0.7500 (  1941 PWs)   bands (ev):

    -5.3039  -5.1865  -5.0628  -5.0106  -4.9042   4.0351   9.3309  12.9549
    15.4253  18.8848  23.8996

          k = 0.6250-0.1250 0.6250 (  1944 PWs)   bands (ev):

    -5.2706  -5.1305  -5.0788  -5.0346  -4.9526   4.3451   8.9728  11.9942
    16.1869  19.3299  26.0360

          k = 0.5000 0.0000 0.5000 (  1947 PWs)   bands (ev):

    -5.2267  -5.1715  -5.0873  -5.0423  -4.9922   3.0363  10.7959  12.3184
    17.5071  20.2989  25.1438

          k = 0.0000 0.7500 0.0000 (  1956 PWs)   bands (ev):

    -5.3855  -5.2734  -4.9467  -4.9292  -4.9292   3.4943  10.7685  14.5180
    14.5180  17.9008  18.9086

          k = 0.8750-0.1250 0.8750 (  1951 PWs)   bands (ev):

    -5.3740  -5.2792  -4.9587  -4.9205  -4.8914   4.6935   9.3248  12.6679
    14.3717  18.0954  20.2804

          k = 0.7500 0.0000 0.7500 (  1926 PWs)   bands (ev):

    -5.3246  -5.1956  -4.9933  -4.9912  -4.9222   5.1277   9.4674  10.5686
    14.9678  18.5066  23.6085

          k = 0.0000-1.0000 0.0000 (  1964 PWs)   bands (ev):

    -5.4128  -5.3154  -4.9261  -4.8748  -4.8748   5.2198   8.4304  13.9941
    13.9941  17.3870  18.6645

          k =-0.2500 0.5000 0.0000 (  1944 PWs)   bands (ev):

    -5.2688  -5.1762  -5.1065  -5.0607  -4.9695   1.9003  12.6147  14.3895
    17.1352  21.2207  21.8116

          k = 0.6250-0.3750 0.8750 (  1944 PWs)   bands (ev):

    -5.2419  -5.2013  -5.1047  -5.0155  -4.9406   3.3063   9.9796  13.4556
    15.8538  21.0128  23.3854

          k = 0.5000-0.2500 0.7500 (  1918 PWs)   bands (ev):

    -5.2302  -5.2106  -5.0876  -5.0217  -4.9216   4.3195   8.4152  13.3582
    15.2672  20.9102  23.1973

          k = 0.7500-0.2500 1.0000 (  1944 PWs)   bands (ev):

    -5.3198  -5.2385  -5.0386  -4.9356  -4.9310   3.8038  10.5020  12.9982
    13.9566  20.0607  20.9830

          k = 0.6250-0.1250 0.8750 (  1930 PWs)   bands (ev):

    -5.2748  -5.1955  -5.0671  -4.9977  -4.8998   4.9117   9.5048  11.3834
    13.5923  20.6299  23.7945

          k = 0.5000 0.0000 0.7500 (  1930 PWs)   bands (ev):

    -5.2399  -5.1543  -5.1065  -5.0169  -4.9343   4.5381  10.0007  10.9136
    14.4088  21.2458  24.7728

          k =-0.2500-1.0000 0.0000 (  1940 PWs)   bands (ev):

    -5.3413  -5.2725  -4.9626  -4.9618  -4.8747   5.2758   8.9536  12.5087
    12.8357  19.6942  20.6945

          k =-0.5000-1.0000 0.0000 (  1912 PWs)   bands (ev):

    -5.2149  -5.1591  -5.1591  -5.0139  -4.8745   5.3358  10.4191  10.4191
    12.1096  23.0944  24.4585

     the Fermi energy is    11.8788 ev

!    total energy              =    -135.43631266 Ry
     Harris-Foulkes estimate   =    -135.43631266 Ry
     estimated scf accuracy    <          6.5E-10 Ry

     The total energy is the sum of the following terms:

     one-electron contribution =     -31.48049135 Ry
     hartree contribution      =      26.10865291 Ry
     xc contribution           =     -32.62579765 Ry
     ewald contribution        =     -97.43857717 Ry
     smearing contrib. (-TS)   =      -0.00009942 Ry

     convergence has been achieved in   6 iterations

     Writing output data file Pb.save/

     init_run     :      1.45s CPU      1.48s WALL (       1 calls)
     electrons    :     13.23s CPU     13.81s WALL (       1 calls)

     Called by init_run:
     wfcinit      :      0.47s CPU      0.47s WALL (       1 calls)
     potinit      :      0.08s CPU      0.08s WALL (       1 calls)
     hinit0       :      0.77s CPU      0.77s WALL (       1 calls)

     Called by electrons:
     c_bands      :     10.00s CPU     10.05s WALL (       7 calls)
     sum_band     :      2.28s CPU      2.58s WALL (       7 calls)
     v_of_rho     :      0.40s CPU      0.41s WALL (       7 calls)
     newd         :      0.64s CPU      0.88s WALL (       7 calls)
     mix_rho      :      0.04s CPU      0.04s WALL (       7 calls)

     Called by c_bands:
     init_us_2    :      0.22s CPU      0.22s WALL (     435 calls)
     cegterg      :      9.49s CPU      9.53s WALL (     203 calls)

     Called by sum_band:
     sum_band:bec :      0.00s CPU      0.00s WALL (     203 calls)
     addusdens    :      0.67s CPU      0.98s WALL (       7 calls)

     Called by *egterg:
     h_psi        :      7.63s CPU      7.66s WALL (     772 calls)
     s_psi        :      0.38s CPU      0.38s WALL (     772 calls)
     g_psi        :      0.05s CPU      0.05s WALL (     540 calls)
     cdiaghg      :      0.17s CPU      0.17s WALL (     714 calls)

     Called by h_psi:
     h_psi:pot    :      7.61s CPU      7.63s WALL (     772 calls)
     h_psi:calbec :      0.42s CPU      0.42s WALL (     772 calls)
     vloc_psi     :      6.79s CPU      6.82s WALL (     772 calls)
     add_vuspsi   :      0.39s CPU      0.39s WALL (     772 calls)

     General routines
     calbec       :      0.56s CPU      0.57s WALL (     975 calls)
     fft          :      0.19s CPU      0.19s WALL (      90 calls)
     ffts         :      0.02s CPU      0.02s WALL (      14 calls)
     fftw         :      7.06s CPU      7.08s WALL (   14435 calls)
     interpolate  :      0.03s CPU      0.03s WALL (       7 calls)

     Parallel routines

     PWSCF        :     15.46s CPU     16.08s WALL


   This run was terminated on:  19:56:17  30Jun2021            

=------------------------------------------------------------------------------=
   JOB DONE.
=------------------------------------------------------------------------------=
