
     Program PWSCF v.6.4.1 starts on 30Jun2021 at 19:55:11 

     This program is part of the open-source Quantum ESPRESSO suite
     for quantum simulation of materials; please cite
         "P. Giannozzi et al., J. Phys.:Condens. Matter 21 395502 (2009);
         "P. Giannozzi et al., J. Phys.:Condens. Matter 29 465901 (2017);
          URL http://www.quantum-espresso.org", 
     in publications or presentations arising from this work. More details at
     http://www.quantum-espresso.org/quote

     Parallel version (MPI), running on     1 processors

     MPI processes distributed on     1 nodes
     Waiting for input...
     Reading input from standard input

     Current dimensions of program PWSCF are:
     Max number of different atomic species (ntypx) = 10
     Max number of k-points (npk) =  40000
     Max angular momentum in pseudopotentials (lmaxx) =  3
               file Pb.pbe-dn-rrkjus_psl.1.0.0.UPF: wavefunction(s)  6S 5D renormalized

     Subspace diagonalization in iterative solution of the eigenvalue problem:
     a serial algorithm will be used


     G-vector sticks info
     --------------------
     sticks:   dense  smooth     PW     G-vecs:    dense   smooth      PW
     Sum        1639     823    253                43895    15593    2637


     Title: 
     Lead                                                                       


     bravais-lattice index     =            2
     lattice parameter (alat)  =       9.2226  a.u.
     unit-cell volume          =     196.1075 (a.u.)^3
     number of atoms/cell      =            1
     number of atomic types    =            1
     number of electrons       =        14.00
     number of Kohn-Sham states=           11
     kinetic-energy cutoff     =      70.0000  Ry
     charge density cutoff     =     560.0000  Ry
     convergence threshold     =      1.0E-09
     mixing beta               =       0.7000
     number of iterations used =            8  plain     mixing
     Exchange-correlation      = PBE ( 1  4  3  4 0 0)

     celldm(1)=   9.222558  celldm(2)=   0.000000  celldm(3)=   0.000000
     celldm(4)=   0.000000  celldm(5)=   0.000000  celldm(6)=   0.000000

     crystal axes: (cart. coord. in units of alat)
               a(1) = (  -0.500000   0.000000   0.500000 )  
               a(2) = (   0.000000   0.500000   0.500000 )  
               a(3) = (  -0.500000   0.500000   0.000000 )  

     reciprocal axes: (cart. coord. in units 2 pi/alat)
               b(1) = ( -1.000000 -1.000000  1.000000 )  
               b(2) = (  1.000000  1.000000  1.000000 )  
               b(3) = ( -1.000000  1.000000 -1.000000 )  


     PseudoPot. # 1 for Pb read from file:
     /home/elena/qe-6.7/pseudo/Pb.pbe-dn-rrkjus_psl.1.0.0.UPF
     MD5 check sum: 1cf8f5e18580e6a90a35f98a53d336de
     Pseudo is Ultrasoft + core correction, Zval = 14.0
     Generated using "atomic" code by A. Dal Corso v.6.3
     Using radial grid of 1281 points,  6 beta functions with: 
                l(1) =   0
                l(2) =   0
                l(3) =   1
                l(4) =   1
                l(5) =   2
                l(6) =   2
     Q(r) pseudized with 0 coefficients 


     atomic species   valence    mass     pseudopotential
        Pb            14.00   207.20000     Pb( 1.00)

     48 Sym. Ops., with inversion, found



   Cartesian axes

     site n.     atom                  positions (alat units)
         1           Pb  tau(   1) = (   0.0000000   0.0000000   0.0000000  )

     number of k points=    29  Methfessel-Paxton smearing, width (Ry)=  0.0500
                       cart. coord. in units 2pi/alat
        k(    1) = (   0.0000000   0.0000000   0.0000000), wk =   0.0039062
        k(    2) = (  -0.1250000   0.1250000  -0.1250000), wk =   0.0312500
        k(    3) = (  -0.2500000   0.2500000  -0.2500000), wk =   0.0312500
        k(    4) = (  -0.3750000   0.3750000  -0.3750000), wk =   0.0312500
        k(    5) = (   0.5000000  -0.5000000   0.5000000), wk =   0.0156250
        k(    6) = (   0.0000000   0.2500000   0.0000000), wk =   0.0234375
        k(    7) = (  -0.1250000   0.3750000  -0.1250000), wk =   0.0937500
        k(    8) = (  -0.2500000   0.5000000  -0.2500000), wk =   0.0937500
        k(    9) = (   0.6250000  -0.3750000   0.6250000), wk =   0.0937500
        k(   10) = (   0.5000000  -0.2500000   0.5000000), wk =   0.0937500
        k(   11) = (   0.3750000  -0.1250000   0.3750000), wk =   0.0937500
        k(   12) = (   0.2500000   0.0000000   0.2500000), wk =   0.0468750
        k(   13) = (   0.0000000   0.5000000   0.0000000), wk =   0.0234375
        k(   14) = (  -0.1250000   0.6250000  -0.1250000), wk =   0.0937500
        k(   15) = (   0.7500000  -0.2500000   0.7500000), wk =   0.0937500
        k(   16) = (   0.6250000  -0.1250000   0.6250000), wk =   0.0937500
        k(   17) = (   0.5000000   0.0000000   0.5000000), wk =   0.0468750
        k(   18) = (   0.0000000   0.7500000   0.0000000), wk =   0.0234375
        k(   19) = (   0.8750000  -0.1250000   0.8750000), wk =   0.0937500
        k(   20) = (   0.7500000   0.0000000   0.7500000), wk =   0.0468750
        k(   21) = (   0.0000000  -1.0000000   0.0000000), wk =   0.0117188
        k(   22) = (  -0.2500000   0.5000000   0.0000000), wk =   0.0937500
        k(   23) = (   0.6250000  -0.3750000   0.8750000), wk =   0.1875000
        k(   24) = (   0.5000000  -0.2500000   0.7500000), wk =   0.0937500
        k(   25) = (   0.7500000  -0.2500000   1.0000000), wk =   0.0937500
        k(   26) = (   0.6250000  -0.1250000   0.8750000), wk =   0.1875000
        k(   27) = (   0.5000000   0.0000000   0.7500000), wk =   0.0937500
        k(   28) = (  -0.2500000  -1.0000000   0.0000000), wk =   0.0468750
        k(   29) = (  -0.5000000  -1.0000000   0.0000000), wk =   0.0234375

     Dense  grid:    43895 G-vectors     FFT dimensions: (  50,  50,  50)

     Smooth grid:    15593 G-vectors     FFT dimensions: (  36,  36,  36)

     Estimated max dynamical RAM per process >     164.96 MB

     Initial potential from superposition of free atoms

     starting charge   13.99765, renormalised to   14.00000
     Starting wfcs are    9 randomized atomic wfcs +    2 random wfcs

     total cpu time spent up to now is        2.2 secs

     Self-consistent Calculation

     iteration #  1     ecut=    70.00 Ry     beta= 0.70
     Davidson diagonalization with overlap
     ethr =  1.00E-02,  avg # of iterations =  4.1

     Threshold (ethr) on eigenvalues was too large:
     Diagonalizing with lowered threshold

     Davidson diagonalization with overlap
     ethr =  1.66E-05,  avg # of iterations =  3.8

     total cpu time spent up to now is        6.2 secs

     total energy              =    -135.43575317 Ry
     Harris-Foulkes estimate   =    -135.43714072 Ry
     estimated scf accuracy    <       0.00234150 Ry

     iteration #  2     ecut=    70.00 Ry     beta= 0.70
     Davidson diagonalization with overlap
     ethr =  1.67E-05,  avg # of iterations =  2.4

     total cpu time spent up to now is        8.2 secs

     total energy              =    -135.43622194 Ry
     Harris-Foulkes estimate   =    -135.43633715 Ry
     estimated scf accuracy    <       0.00020544 Ry

     iteration #  3     ecut=    70.00 Ry     beta= 0.70
     Davidson diagonalization with overlap
     ethr =  1.47E-06,  avg # of iterations =  2.3

     total cpu time spent up to now is       10.1 secs

     total energy              =    -135.43626422 Ry
     Harris-Foulkes estimate   =    -135.43626529 Ry
     estimated scf accuracy    <       0.00001004 Ry

     iteration #  4     ecut=    70.00 Ry     beta= 0.70
     Davidson diagonalization with overlap
     ethr =  7.17E-08,  avg # of iterations =  1.9

     total cpu time spent up to now is       11.8 secs

     total energy              =    -135.43626542 Ry
     Harris-Foulkes estimate   =    -135.43626536 Ry
     estimated scf accuracy    <       0.00000010 Ry

     iteration #  5     ecut=    70.00 Ry     beta= 0.70
     Davidson diagonalization with overlap
     ethr =  6.91E-10,  avg # of iterations =  2.1

     total cpu time spent up to now is       13.7 secs

     total energy              =    -135.43626545 Ry
     Harris-Foulkes estimate   =    -135.43626545 Ry
     estimated scf accuracy    <       0.00000001 Ry

     iteration #  6     ecut=    70.00 Ry     beta= 0.70
     Davidson diagonalization with overlap
     ethr =  8.30E-11,  avg # of iterations =  2.0

     total cpu time spent up to now is       15.6 secs

     End of self-consistent calculation

          k = 0.0000 0.0000 0.0000 (  1917 PWs)   bands (ev):

    -5.2294  -5.2294  -5.2294  -5.0707  -5.0707  -0.1803  19.6450  19.6450
    19.6450  21.9771  23.7532

          k =-0.1250 0.1250-0.1250 (  1946 PWs)   bands (ev):

    -5.2314  -5.2071  -5.2071  -5.0704  -5.0704   0.1344  16.7227  19.2719
    19.2719  21.5088  24.8330

          k =-0.2500 0.2500-0.2500 (  1949 PWs)   bands (ev):

    -5.2420  -5.1896  -5.1896  -5.0312  -5.0312   1.0777  12.7007  18.5478
    18.5478  21.1646  23.7905

          k =-0.3750 0.3750-0.3750 (  1925 PWs)   bands (ev):

    -5.2602  -5.2072  -5.2072  -4.9545  -4.9545   2.5590   9.2582  17.9473
    17.9473  21.1495  22.4275

          k = 0.5000-0.5000 0.5000 (  1946 PWs)   bands (ev):

    -5.2698  -5.2181  -5.2181  -4.9188  -4.9188   3.7024   7.4499  17.7187
    17.7187  21.3865  21.7303

          k = 0.0000 0.2500 0.0000 (  1949 PWs)   bands (ev):

    -5.2574  -5.1814  -5.1814  -5.1007  -5.0506   0.2390  17.6156  18.1400
    18.1400  20.8940  23.2948

          k =-0.1250 0.3750-0.1250 (  1944 PWs)   bands (ev):

    -5.2694  -5.1612  -5.1457  -5.0985  -5.0133   0.9730  14.1001  17.1907
    17.6667  20.9809  22.2321

          k =-0.2500 0.5000-0.2500 (  1952 PWs)   bands (ev):

    -5.2666  -5.1895  -5.1555  -5.0330  -4.9444   2.2892  10.5274  16.6094
    16.7211  20.2400  23.9146

          k = 0.6250-0.3750 0.6250 (  1943 PWs)   bands (ev):

    -5.2596  -5.2084  -5.1746  -4.9715  -4.9162   3.7437   8.0160  15.6628
    16.8550  20.1078  23.6947

          k = 0.5000-0.2500 0.5000 (  1940 PWs)   bands (ev):

    -5.2410  -5.2132  -5.1762  -4.9621  -4.9517   3.3226   8.6596  15.1888
    17.6073  20.6161  23.1779

          k = 0.3750-0.1250 0.3750 (  1943 PWs)   bands (ev):

    -5.2319  -5.1956  -5.1587  -5.0545  -4.9823   1.7936  11.6533  15.3336
    18.7959  21.7251  22.9280

          k = 0.2500 0.0000 0.2500 (  1943 PWs)   bands (ev):

    -5.2364  -5.1831  -5.1746  -5.0955  -5.0335   0.6593  15.0118  16.4501
    19.7138  22.3384  23.4900

          k = 0.0000 0.5000 0.0000 (  1964 PWs)   bands (ev):

    -5.3242  -5.1837  -5.0610  -5.0610  -5.0015   1.4937  14.3576  16.0016
    16.0016  19.6533  19.7173

          k =-0.1250 0.6250-0.1250 (  1941 PWs)   bands (ev):

    -5.3332  -5.2179  -5.0467  -5.0120  -4.9395   2.6051  11.7833  14.5543
    15.3674  18.9643  20.8939

          k = 0.7500-0.2500 0.7500 (  1941 PWs)   bands (ev):

    -5.3088  -5.1916  -5.0679  -5.0155  -4.9093   4.0332   9.3297  12.9535
    15.4239  18.8839  23.8984

          k = 0.6250-0.1250 0.6250 (  1944 PWs)   bands (ev):

    -5.2755  -5.1355  -5.0839  -5.0397  -4.9576   4.3430   8.9717  11.9928
    16.1855  19.3290  26.0347

          k = 0.5000 0.0000 0.5000 (  1947 PWs)   bands (ev):

    -5.2317  -5.1764  -5.0925  -5.0472  -4.9973   3.0344  10.7946  12.3171
    17.5056  20.2981  25.1426

          k = 0.0000 0.7500 0.0000 (  1956 PWs)   bands (ev):

    -5.3903  -5.2785  -4.9520  -4.9343  -4.9343   3.4925  10.7670  14.5167
    14.5167  17.9003  18.9071

          k = 0.8750-0.1250 0.8750 (  1951 PWs)   bands (ev):

    -5.3789  -5.2843  -4.9640  -4.9256  -4.8965   4.6914   9.3234  12.6667
    14.3704  18.0945  20.2791

          k = 0.7500 0.0000 0.7500 (  1926 PWs)   bands (ev):

    -5.3295  -5.2007  -4.9985  -4.9962  -4.9272   5.1255   9.4662  10.5675
    14.9665  18.5057  23.6073

          k = 0.0000-1.0000 0.0000 (  1964 PWs)   bands (ev):

    -5.4176  -5.3205  -4.9314  -4.8799  -4.8799   5.2176   8.4293  13.9928
    13.9928  17.3865  18.6630

          k =-0.2500 0.5000 0.0000 (  1944 PWs)   bands (ev):

    -5.2737  -5.1812  -5.1116  -5.0657  -4.9747   1.8986  12.6132  14.3881
    17.1338  21.2201  21.8103

          k = 0.6250-0.3750 0.8750 (  1944 PWs)   bands (ev):

    -5.2468  -5.2063  -5.1098  -5.0206  -4.9458   3.3045   9.9783  13.4542
    15.8525  21.0120  23.3840

          k = 0.5000-0.2500 0.7500 (  1918 PWs)   bands (ev):

    -5.2353  -5.2155  -5.0927  -5.0268  -4.9267   4.3174   8.4142  13.3567
    15.2660  20.9094  23.1959

          k = 0.7500-0.2500 1.0000 (  1944 PWs)   bands (ev):

    -5.3246  -5.2436  -5.0436  -4.9407  -4.9361   3.8019  10.5005  12.9968
    13.9554  20.0600  20.9816

          k = 0.6250-0.1250 0.8750 (  1930 PWs)   bands (ev):

    -5.2797  -5.2005  -5.0721  -5.0029  -4.9048   4.9095   9.5036  11.3821
    13.5911  20.6289  23.7933

          k = 0.5000 0.0000 0.7500 (  1930 PWs)   bands (ev):

    -5.2450  -5.1592  -5.1116  -5.0221  -4.9393   4.5361   9.9995  10.9123
    14.4076  21.2449  24.7715

          k =-0.2500-1.0000 0.0000 (  1940 PWs)   bands (ev):

    -5.3462  -5.2776  -4.9678  -4.9668  -4.8798   5.2736   8.9524  12.5074
    12.8346  19.6934  20.6931

          k =-0.5000-1.0000 0.0000 (  1912 PWs)   bands (ev):

    -5.2200  -5.1641  -5.1641  -5.0191  -4.8796   5.3335  10.4178  10.4178
    12.1086  23.0937  24.4572

     the Fermi energy is    11.9376 ev

!    total energy              =    -135.43626545 Ry
     Harris-Foulkes estimate   =    -135.43626545 Ry
     estimated scf accuracy    <          5.9E-10 Ry

     The total energy is the sum of the following terms:

     one-electron contribution =     -31.47725428 Ry
     hartree contribution      =      26.10427786 Ry
     xc contribution           =     -32.62518851 Ry
     ewald contribution        =     -97.43857717 Ry
     smearing contrib. (-TS)   =       0.00047665 Ry

     convergence has been achieved in   6 iterations

     Writing output data file Pb.save/

     init_run     :      1.42s CPU      1.47s WALL (       1 calls)
     electrons    :     12.80s CPU     13.37s WALL (       1 calls)

     Called by init_run:
     wfcinit      :      0.47s CPU      0.47s WALL (       1 calls)
     potinit      :      0.07s CPU      0.08s WALL (       1 calls)
     hinit0       :      0.77s CPU      0.77s WALL (       1 calls)

     Called by electrons:
     c_bands      :      9.60s CPU      9.62s WALL (       7 calls)
     sum_band     :      2.25s CPU      2.57s WALL (       7 calls)
     v_of_rho     :      0.40s CPU      0.42s WALL (       7 calls)
     newd         :      0.60s CPU      0.88s WALL (       7 calls)
     mix_rho      :      0.04s CPU      0.04s WALL (       7 calls)

     Called by c_bands:
     init_us_2    :      0.22s CPU      0.22s WALL (     435 calls)
     cegterg      :      9.11s CPU      9.13s WALL (     203 calls)

     Called by sum_band:
     sum_band:bec :      0.00s CPU      0.00s WALL (     203 calls)
     addusdens    :      0.66s CPU      0.97s WALL (       7 calls)

     Called by *egterg:
     h_psi        :      7.35s CPU      7.37s WALL (     772 calls)
     s_psi        :      0.37s CPU      0.37s WALL (     772 calls)
     g_psi        :      0.05s CPU      0.05s WALL (     540 calls)
     cdiaghg      :      0.16s CPU      0.16s WALL (     714 calls)

     Called by h_psi:
     h_psi:pot    :      7.32s CPU      7.34s WALL (     772 calls)
     h_psi:calbec :      0.40s CPU      0.40s WALL (     772 calls)
     vloc_psi     :      6.55s CPU      6.57s WALL (     772 calls)
     add_vuspsi   :      0.37s CPU      0.37s WALL (     772 calls)

     General routines
     calbec       :      0.54s CPU      0.54s WALL (     975 calls)
     fft          :      0.19s CPU      0.19s WALL (      90 calls)
     ffts         :      0.02s CPU      0.02s WALL (      14 calls)
     fftw         :      6.84s CPU      6.87s WALL (   14437 calls)
     interpolate  :      0.03s CPU      0.03s WALL (       7 calls)

     Parallel routines

     PWSCF        :     14.99s CPU     15.64s WALL


   This run was terminated on:  19:55:27  30Jun2021            

=------------------------------------------------------------------------------=
   JOB DONE.
=------------------------------------------------------------------------------=
