
     Program PWSCF v.6.4.1 starts on 30Jun2021 at 19:54:55 

     This program is part of the open-source Quantum ESPRESSO suite
     for quantum simulation of materials; please cite
         "P. Giannozzi et al., J. Phys.:Condens. Matter 21 395502 (2009);
         "P. Giannozzi et al., J. Phys.:Condens. Matter 29 465901 (2017);
          URL http://www.quantum-espresso.org", 
     in publications or presentations arising from this work. More details at
     http://www.quantum-espresso.org/quote

     Parallel version (MPI), running on     1 processors

     MPI processes distributed on     1 nodes
     Waiting for input...
     Reading input from standard input

     Current dimensions of program PWSCF are:
     Max number of different atomic species (ntypx) = 10
     Max number of k-points (npk) =  40000
     Max angular momentum in pseudopotentials (lmaxx) =  3
               file Pb.pbe-dn-rrkjus_psl.1.0.0.UPF: wavefunction(s)  6S 5D renormalized

     Subspace diagonalization in iterative solution of the eigenvalue problem:
     a serial algorithm will be used


     G-vector sticks info
     --------------------
     sticks:   dense  smooth     PW     G-vecs:    dense   smooth      PW
     Sum        1639     823    253                43895    15593    2637


     Title: 
     Lead                                                                       


     bravais-lattice index     =            2
     lattice parameter (alat)  =       9.2226  a.u.
     unit-cell volume          =     196.1075 (a.u.)^3
     number of atoms/cell      =            1
     number of atomic types    =            1
     number of electrons       =        14.00
     number of Kohn-Sham states=           11
     kinetic-energy cutoff     =      70.0000  Ry
     charge density cutoff     =     560.0000  Ry
     convergence threshold     =      1.0E-09
     mixing beta               =       0.7000
     number of iterations used =            8  plain     mixing
     Exchange-correlation      = PBE ( 1  4  3  4 0 0)

     celldm(1)=   9.222558  celldm(2)=   0.000000  celldm(3)=   0.000000
     celldm(4)=   0.000000  celldm(5)=   0.000000  celldm(6)=   0.000000

     crystal axes: (cart. coord. in units of alat)
               a(1) = (  -0.500000   0.000000   0.500000 )  
               a(2) = (   0.000000   0.500000   0.500000 )  
               a(3) = (  -0.500000   0.500000   0.000000 )  

     reciprocal axes: (cart. coord. in units 2 pi/alat)
               b(1) = ( -1.000000 -1.000000  1.000000 )  
               b(2) = (  1.000000  1.000000  1.000000 )  
               b(3) = ( -1.000000  1.000000 -1.000000 )  


     PseudoPot. # 1 for Pb read from file:
     /home/elena/qe-6.7/pseudo/Pb.pbe-dn-rrkjus_psl.1.0.0.UPF
     MD5 check sum: 1cf8f5e18580e6a90a35f98a53d336de
     Pseudo is Ultrasoft + core correction, Zval = 14.0
     Generated using "atomic" code by A. Dal Corso v.6.3
     Using radial grid of 1281 points,  6 beta functions with: 
                l(1) =   0
                l(2) =   0
                l(3) =   1
                l(4) =   1
                l(5) =   2
                l(6) =   2
     Q(r) pseudized with 0 coefficients 


     atomic species   valence    mass     pseudopotential
        Pb            14.00   207.20000     Pb( 1.00)

     48 Sym. Ops., with inversion, found



   Cartesian axes

     site n.     atom                  positions (alat units)
         1           Pb  tau(   1) = (   0.0000000   0.0000000   0.0000000  )

     number of k points=    29  Methfessel-Paxton smearing, width (Ry)=  0.0600
                       cart. coord. in units 2pi/alat
        k(    1) = (   0.0000000   0.0000000   0.0000000), wk =   0.0039062
        k(    2) = (  -0.1250000   0.1250000  -0.1250000), wk =   0.0312500
        k(    3) = (  -0.2500000   0.2500000  -0.2500000), wk =   0.0312500
        k(    4) = (  -0.3750000   0.3750000  -0.3750000), wk =   0.0312500
        k(    5) = (   0.5000000  -0.5000000   0.5000000), wk =   0.0156250
        k(    6) = (   0.0000000   0.2500000   0.0000000), wk =   0.0234375
        k(    7) = (  -0.1250000   0.3750000  -0.1250000), wk =   0.0937500
        k(    8) = (  -0.2500000   0.5000000  -0.2500000), wk =   0.0937500
        k(    9) = (   0.6250000  -0.3750000   0.6250000), wk =   0.0937500
        k(   10) = (   0.5000000  -0.2500000   0.5000000), wk =   0.0937500
        k(   11) = (   0.3750000  -0.1250000   0.3750000), wk =   0.0937500
        k(   12) = (   0.2500000   0.0000000   0.2500000), wk =   0.0468750
        k(   13) = (   0.0000000   0.5000000   0.0000000), wk =   0.0234375
        k(   14) = (  -0.1250000   0.6250000  -0.1250000), wk =   0.0937500
        k(   15) = (   0.7500000  -0.2500000   0.7500000), wk =   0.0937500
        k(   16) = (   0.6250000  -0.1250000   0.6250000), wk =   0.0937500
        k(   17) = (   0.5000000   0.0000000   0.5000000), wk =   0.0468750
        k(   18) = (   0.0000000   0.7500000   0.0000000), wk =   0.0234375
        k(   19) = (   0.8750000  -0.1250000   0.8750000), wk =   0.0937500
        k(   20) = (   0.7500000   0.0000000   0.7500000), wk =   0.0468750
        k(   21) = (   0.0000000  -1.0000000   0.0000000), wk =   0.0117188
        k(   22) = (  -0.2500000   0.5000000   0.0000000), wk =   0.0937500
        k(   23) = (   0.6250000  -0.3750000   0.8750000), wk =   0.1875000
        k(   24) = (   0.5000000  -0.2500000   0.7500000), wk =   0.0937500
        k(   25) = (   0.7500000  -0.2500000   1.0000000), wk =   0.0937500
        k(   26) = (   0.6250000  -0.1250000   0.8750000), wk =   0.1875000
        k(   27) = (   0.5000000   0.0000000   0.7500000), wk =   0.0937500
        k(   28) = (  -0.2500000  -1.0000000   0.0000000), wk =   0.0468750
        k(   29) = (  -0.5000000  -1.0000000   0.0000000), wk =   0.0234375

     Dense  grid:    43895 G-vectors     FFT dimensions: (  50,  50,  50)

     Smooth grid:    15593 G-vectors     FFT dimensions: (  36,  36,  36)

     Estimated max dynamical RAM per process >     164.96 MB

     Initial potential from superposition of free atoms

     starting charge   13.99765, renormalised to   14.00000
     Starting wfcs are    9 randomized atomic wfcs +    2 random wfcs

     total cpu time spent up to now is        2.3 secs

     Self-consistent Calculation

     iteration #  1     ecut=    70.00 Ry     beta= 0.70
     Davidson diagonalization with overlap
     ethr =  1.00E-02,  avg # of iterations =  4.1

     Threshold (ethr) on eigenvalues was too large:
     Diagonalizing with lowered threshold

     Davidson diagonalization with overlap
     ethr =  1.66E-05,  avg # of iterations =  3.8

     total cpu time spent up to now is        6.1 secs

     total energy              =    -135.43563516 Ry
     Harris-Foulkes estimate   =    -135.43702628 Ry
     estimated scf accuracy    <       0.00234406 Ry

     iteration #  2     ecut=    70.00 Ry     beta= 0.70
     Davidson diagonalization with overlap
     ethr =  1.67E-05,  avg # of iterations =  2.4

     total cpu time spent up to now is        8.1 secs

     total energy              =    -135.43610499 Ry
     Harris-Foulkes estimate   =    -135.43622054 Ry
     estimated scf accuracy    <       0.00020559 Ry

     iteration #  3     ecut=    70.00 Ry     beta= 0.70
     Davidson diagonalization with overlap
     ethr =  1.47E-06,  avg # of iterations =  2.3

     total cpu time spent up to now is       10.0 secs

     total energy              =    -135.43614734 Ry
     Harris-Foulkes estimate   =    -135.43614842 Ry
     estimated scf accuracy    <       0.00001000 Ry

     iteration #  4     ecut=    70.00 Ry     beta= 0.70
     Davidson diagonalization with overlap
     ethr =  7.15E-08,  avg # of iterations =  1.9

     total cpu time spent up to now is       11.7 secs

     total energy              =    -135.43614854 Ry
     Harris-Foulkes estimate   =    -135.43614847 Ry
     estimated scf accuracy    <       0.00000010 Ry

     iteration #  5     ecut=    70.00 Ry     beta= 0.70
     Davidson diagonalization with overlap
     ethr =  6.92E-10,  avg # of iterations =  2.1

     total cpu time spent up to now is       13.6 secs

     total energy              =    -135.43614856 Ry
     Harris-Foulkes estimate   =    -135.43614857 Ry
     estimated scf accuracy    <       0.00000001 Ry

     iteration #  6     ecut=    70.00 Ry     beta= 0.70
     Davidson diagonalization with overlap
     ethr =  8.45E-11,  avg # of iterations =  2.0

     total cpu time spent up to now is       15.5 secs

     End of self-consistent calculation

          k = 0.0000 0.0000 0.0000 (  1917 PWs)   bands (ev):

    -5.2299  -5.2299  -5.2299  -5.0711  -5.0711  -0.1805  19.6448  19.6448
    19.6448  21.9771  23.7529

          k =-0.1250 0.1250-0.1250 (  1946 PWs)   bands (ev):

    -5.2318  -5.2075  -5.2075  -5.0708  -5.0708   0.1342  16.7225  19.2717
    19.2717  21.5087  24.8328

          k =-0.2500 0.2500-0.2500 (  1949 PWs)   bands (ev):

    -5.2425  -5.1900  -5.1900  -5.0316  -5.0316   1.0775  12.7006  18.5476
    18.5476  21.1645  23.7904

          k =-0.3750 0.3750-0.3750 (  1925 PWs)   bands (ev):

    -5.2606  -5.2076  -5.2076  -4.9549  -4.9549   2.5589   9.2581  17.9471
    17.9471  21.1494  22.4273

          k = 0.5000-0.5000 0.5000 (  1946 PWs)   bands (ev):

    -5.2703  -5.2185  -5.2185  -4.9192  -4.9192   3.7022   7.4498  17.7186
    17.7186  21.3864  21.7302

          k = 0.0000 0.2500 0.0000 (  1949 PWs)   bands (ev):

    -5.2578  -5.1819  -5.1819  -5.1010  -5.0509   0.2388  17.6154  18.1398
    18.1398  20.8940  23.2946

          k =-0.1250 0.3750-0.1250 (  1944 PWs)   bands (ev):

    -5.2698  -5.1617  -5.1461  -5.0989  -5.0137   0.9728  14.0999  17.1906
    17.6665  20.9808  22.2320

          k =-0.2500 0.5000-0.2500 (  1952 PWs)   bands (ev):

    -5.2670  -5.1899  -5.1559  -5.0335  -4.9448   2.2890  10.5273  16.6093
    16.7209  20.2399  23.9145

          k = 0.6250-0.3750 0.6250 (  1943 PWs)   bands (ev):

    -5.2601  -5.2089  -5.1750  -4.9719  -4.9166   3.7435   8.0159  15.6626
    16.8548  20.1077  23.6945

          k = 0.5000-0.2500 0.5000 (  1940 PWs)   bands (ev):

    -5.2414  -5.2137  -5.1766  -4.9625  -4.9521   3.3224   8.6595  15.1887
    17.6071  20.6160  23.1778

          k = 0.3750-0.1250 0.3750 (  1943 PWs)   bands (ev):

    -5.2323  -5.1961  -5.1591  -5.0549  -4.9827   1.7934  11.6532  15.3335
    18.7957  21.7250  22.9279

          k = 0.2500 0.0000 0.2500 (  1943 PWs)   bands (ev):

    -5.2368  -5.1835  -5.1751  -5.0959  -5.0339   0.6592  15.0116  16.4500
    19.7137  22.3383  23.4899

          k = 0.0000 0.5000 0.0000 (  1964 PWs)   bands (ev):

    -5.3246  -5.1841  -5.0614  -5.0614  -5.0019   1.4935  14.3575  16.0014
    16.0014  19.6532  19.7172

          k =-0.1250 0.6250-0.1250 (  1941 PWs)   bands (ev):

    -5.3336  -5.2183  -5.0471  -5.0125  -4.9399   2.6050  11.7831  14.5541
    15.3673  18.9641  20.8938

          k = 0.7500-0.2500 0.7500 (  1941 PWs)   bands (ev):

    -5.3093  -5.1920  -5.0683  -5.0160  -4.9097   4.0330   9.3296  12.9534
    15.4238  18.8838  23.8983

          k = 0.6250-0.1250 0.6250 (  1944 PWs)   bands (ev):

    -5.2759  -5.1359  -5.0843  -5.0401  -4.9581   4.3428   8.9715  11.9927
    16.1854  19.3289  26.0346

          k = 0.5000 0.0000 0.5000 (  1947 PWs)   bands (ev):

    -5.2322  -5.1768  -5.0929  -5.0477  -4.9977   3.0343  10.7944  12.3170
    17.5055  20.2980  25.1425

          k = 0.0000 0.7500 0.0000 (  1956 PWs)   bands (ev):

    -5.3907  -5.2788  -4.9524  -4.9347  -4.9347   3.4923  10.7668  14.5165
    14.5165  17.9001  18.9070

          k = 0.8750-0.1250 0.8750 (  1951 PWs)   bands (ev):

    -5.3793  -5.2846  -4.9643  -4.9260  -4.8969   4.6912   9.3233  12.6666
    14.3703  18.0944  20.2790

          k = 0.7500 0.0000 0.7500 (  1926 PWs)   bands (ev):

    -5.3299  -5.2011  -4.9989  -4.9967  -4.9276   5.1253   9.4661  10.5674
    14.9664  18.5055  23.6072

          k = 0.0000-1.0000 0.0000 (  1964 PWs)   bands (ev):

    -5.4180  -5.3208  -4.9318  -4.8803  -4.8803   5.2174   8.4292  13.9927
    13.9927  17.3863  18.6629

          k =-0.2500 0.5000 0.0000 (  1944 PWs)   bands (ev):

    -5.2741  -5.1816  -5.1120  -5.0662  -4.9751   1.8984  12.6131  14.3880
    17.1336  21.2200  21.8102

          k = 0.6250-0.3750 0.8750 (  1944 PWs)   bands (ev):

    -5.2473  -5.2067  -5.1102  -5.0210  -4.9462   3.3043   9.9782  13.4541
    15.8523  21.0119  23.3839

          k = 0.5000-0.2500 0.7500 (  1918 PWs)   bands (ev):

    -5.2357  -5.2159  -5.0931  -5.0272  -4.9271   4.3172   8.4141  13.3565
    15.2658  20.9093  23.1958

          k = 0.7500-0.2500 1.0000 (  1944 PWs)   bands (ev):

    -5.3251  -5.2440  -5.0441  -4.9412  -4.9365   3.8017  10.5004  12.9967
    13.9553  20.0598  20.9816

          k = 0.6250-0.1250 0.8750 (  1930 PWs)   bands (ev):

    -5.2802  -5.2009  -5.0725  -5.0033  -4.9053   4.9093   9.5035  11.3820
    13.5910  20.6287  23.7932

          k = 0.5000 0.0000 0.7500 (  1930 PWs)   bands (ev):

    -5.2454  -5.1596  -5.1120  -5.0225  -4.9398   4.5359   9.9994  10.9122
    14.4075  21.2448  24.7714

          k =-0.2500-1.0000 0.0000 (  1940 PWs)   bands (ev):

    -5.3466  -5.2779  -4.9682  -4.9672  -4.8802   5.2734   8.9523  12.5072
    12.8345  19.6933  20.6930

          k =-0.5000-1.0000 0.0000 (  1912 PWs)   bands (ev):

    -5.2204  -5.1645  -5.1645  -5.0195  -4.8800   5.3333  10.4177  10.4177
    12.1085  23.0935  24.4571

     the Fermi energy is    11.9468 ev

!    total energy              =    -135.43614856 Ry
     Harris-Foulkes estimate   =    -135.43614856 Ry
     estimated scf accuracy    <          5.9E-10 Ry

     The total energy is the sum of the following terms:

     one-electron contribution =     -31.47718142 Ry
     hartree contribution      =      26.10390901 Ry
     xc contribution           =     -32.62513291 Ry
     ewald contribution        =     -97.43857717 Ry
     smearing contrib. (-TS)   =       0.00083391 Ry

     convergence has been achieved in   6 iterations

     Writing output data file Pb.save/

     init_run     :      1.44s CPU      1.48s WALL (       1 calls)
     electrons    :     12.63s CPU     13.22s WALL (       1 calls)

     Called by init_run:
     wfcinit      :      0.47s CPU      0.48s WALL (       1 calls)
     potinit      :      0.08s CPU      0.08s WALL (       1 calls)
     hinit0       :      0.76s CPU      0.77s WALL (       1 calls)

     Called by electrons:
     c_bands      :      9.50s CPU      9.55s WALL (       7 calls)
     sum_band     :      2.20s CPU      2.50s WALL (       7 calls)
     v_of_rho     :      0.40s CPU      0.41s WALL (       7 calls)
     newd         :      0.62s CPU      0.87s WALL (       7 calls)
     mix_rho      :      0.03s CPU      0.03s WALL (       7 calls)

     Called by c_bands:
     init_us_2    :      0.21s CPU      0.21s WALL (     435 calls)
     cegterg      :      9.01s CPU      9.06s WALL (     203 calls)

     Called by sum_band:
     sum_band:bec :      0.00s CPU      0.00s WALL (     203 calls)
     addusdens    :      0.66s CPU      0.95s WALL (       7 calls)

     Called by *egterg:
     h_psi        :      7.29s CPU      7.33s WALL (     772 calls)
     s_psi        :      0.36s CPU      0.36s WALL (     772 calls)
     g_psi        :      0.05s CPU      0.05s WALL (     540 calls)
     cdiaghg      :      0.16s CPU      0.16s WALL (     714 calls)

     Called by h_psi:
     h_psi:pot    :      7.27s CPU      7.30s WALL (     772 calls)
     h_psi:calbec :      0.39s CPU      0.39s WALL (     772 calls)
     vloc_psi     :      6.51s CPU      6.54s WALL (     772 calls)
     add_vuspsi   :      0.37s CPU      0.37s WALL (     772 calls)

     General routines
     calbec       :      0.52s CPU      0.52s WALL (     975 calls)
     fft          :      0.19s CPU      0.19s WALL (      90 calls)
     ffts         :      0.02s CPU      0.02s WALL (      14 calls)
     fftw         :      6.80s CPU      6.84s WALL (   14447 calls)
     interpolate  :      0.03s CPU      0.03s WALL (       7 calls)

     Parallel routines

     PWSCF        :     14.87s CPU     15.51s WALL


   This run was terminated on:  19:55:10  30Jun2021            

=------------------------------------------------------------------------------=
   JOB DONE.
=------------------------------------------------------------------------------=
