
     Program PWSCF v.6.4.1 starts on 30Jun2021 at 19:54:39 

     This program is part of the open-source Quantum ESPRESSO suite
     for quantum simulation of materials; please cite
         "P. Giannozzi et al., J. Phys.:Condens. Matter 21 395502 (2009);
         "P. Giannozzi et al., J. Phys.:Condens. Matter 29 465901 (2017);
          URL http://www.quantum-espresso.org", 
     in publications or presentations arising from this work. More details at
     http://www.quantum-espresso.org/quote

     Parallel version (MPI), running on     1 processors

     MPI processes distributed on     1 nodes
     Waiting for input...
     Reading input from standard input

     Current dimensions of program PWSCF are:
     Max number of different atomic species (ntypx) = 10
     Max number of k-points (npk) =  40000
     Max angular momentum in pseudopotentials (lmaxx) =  3
               file Pb.pbe-dn-rrkjus_psl.1.0.0.UPF: wavefunction(s)  6S 5D renormalized

     Subspace diagonalization in iterative solution of the eigenvalue problem:
     a serial algorithm will be used


     G-vector sticks info
     --------------------
     sticks:   dense  smooth     PW     G-vecs:    dense   smooth      PW
     Sum        1639     823    253                43895    15593    2637


     Title: 
     Lead                                                                       


     bravais-lattice index     =            2
     lattice parameter (alat)  =       9.2226  a.u.
     unit-cell volume          =     196.1075 (a.u.)^3
     number of atoms/cell      =            1
     number of atomic types    =            1
     number of electrons       =        14.00
     number of Kohn-Sham states=           11
     kinetic-energy cutoff     =      70.0000  Ry
     charge density cutoff     =     560.0000  Ry
     convergence threshold     =      1.0E-09
     mixing beta               =       0.7000
     number of iterations used =            8  plain     mixing
     Exchange-correlation      = PBE ( 1  4  3  4 0 0)

     celldm(1)=   9.222558  celldm(2)=   0.000000  celldm(3)=   0.000000
     celldm(4)=   0.000000  celldm(5)=   0.000000  celldm(6)=   0.000000

     crystal axes: (cart. coord. in units of alat)
               a(1) = (  -0.500000   0.000000   0.500000 )  
               a(2) = (   0.000000   0.500000   0.500000 )  
               a(3) = (  -0.500000   0.500000   0.000000 )  

     reciprocal axes: (cart. coord. in units 2 pi/alat)
               b(1) = ( -1.000000 -1.000000  1.000000 )  
               b(2) = (  1.000000  1.000000  1.000000 )  
               b(3) = ( -1.000000  1.000000 -1.000000 )  


     PseudoPot. # 1 for Pb read from file:
     /home/elena/qe-6.7/pseudo/Pb.pbe-dn-rrkjus_psl.1.0.0.UPF
     MD5 check sum: 1cf8f5e18580e6a90a35f98a53d336de
     Pseudo is Ultrasoft + core correction, Zval = 14.0
     Generated using "atomic" code by A. Dal Corso v.6.3
     Using radial grid of 1281 points,  6 beta functions with: 
                l(1) =   0
                l(2) =   0
                l(3) =   1
                l(4) =   1
                l(5) =   2
                l(6) =   2
     Q(r) pseudized with 0 coefficients 


     atomic species   valence    mass     pseudopotential
        Pb            14.00   207.20000     Pb( 1.00)

     48 Sym. Ops., with inversion, found



   Cartesian axes

     site n.     atom                  positions (alat units)
         1           Pb  tau(   1) = (   0.0000000   0.0000000   0.0000000  )

     number of k points=    29  Methfessel-Paxton smearing, width (Ry)=  0.0700
                       cart. coord. in units 2pi/alat
        k(    1) = (   0.0000000   0.0000000   0.0000000), wk =   0.0039062
        k(    2) = (  -0.1250000   0.1250000  -0.1250000), wk =   0.0312500
        k(    3) = (  -0.2500000   0.2500000  -0.2500000), wk =   0.0312500
        k(    4) = (  -0.3750000   0.3750000  -0.3750000), wk =   0.0312500
        k(    5) = (   0.5000000  -0.5000000   0.5000000), wk =   0.0156250
        k(    6) = (   0.0000000   0.2500000   0.0000000), wk =   0.0234375
        k(    7) = (  -0.1250000   0.3750000  -0.1250000), wk =   0.0937500
        k(    8) = (  -0.2500000   0.5000000  -0.2500000), wk =   0.0937500
        k(    9) = (   0.6250000  -0.3750000   0.6250000), wk =   0.0937500
        k(   10) = (   0.5000000  -0.2500000   0.5000000), wk =   0.0937500
        k(   11) = (   0.3750000  -0.1250000   0.3750000), wk =   0.0937500
        k(   12) = (   0.2500000   0.0000000   0.2500000), wk =   0.0468750
        k(   13) = (   0.0000000   0.5000000   0.0000000), wk =   0.0234375
        k(   14) = (  -0.1250000   0.6250000  -0.1250000), wk =   0.0937500
        k(   15) = (   0.7500000  -0.2500000   0.7500000), wk =   0.0937500
        k(   16) = (   0.6250000  -0.1250000   0.6250000), wk =   0.0937500
        k(   17) = (   0.5000000   0.0000000   0.5000000), wk =   0.0468750
        k(   18) = (   0.0000000   0.7500000   0.0000000), wk =   0.0234375
        k(   19) = (   0.8750000  -0.1250000   0.8750000), wk =   0.0937500
        k(   20) = (   0.7500000   0.0000000   0.7500000), wk =   0.0468750
        k(   21) = (   0.0000000  -1.0000000   0.0000000), wk =   0.0117188
        k(   22) = (  -0.2500000   0.5000000   0.0000000), wk =   0.0937500
        k(   23) = (   0.6250000  -0.3750000   0.8750000), wk =   0.1875000
        k(   24) = (   0.5000000  -0.2500000   0.7500000), wk =   0.0937500
        k(   25) = (   0.7500000  -0.2500000   1.0000000), wk =   0.0937500
        k(   26) = (   0.6250000  -0.1250000   0.8750000), wk =   0.1875000
        k(   27) = (   0.5000000   0.0000000   0.7500000), wk =   0.0937500
        k(   28) = (  -0.2500000  -1.0000000   0.0000000), wk =   0.0468750
        k(   29) = (  -0.5000000  -1.0000000   0.0000000), wk =   0.0234375

     Dense  grid:    43895 G-vectors     FFT dimensions: (  50,  50,  50)

     Smooth grid:    15593 G-vectors     FFT dimensions: (  36,  36,  36)

     Estimated max dynamical RAM per process >     164.96 MB

     Initial potential from superposition of free atoms

     starting charge   13.99765, renormalised to   14.00000
     Starting wfcs are    9 randomized atomic wfcs +    2 random wfcs

     total cpu time spent up to now is        2.2 secs

     Self-consistent Calculation

     iteration #  1     ecut=    70.00 Ry     beta= 0.70
     Davidson diagonalization with overlap
     ethr =  1.00E-02,  avg # of iterations =  4.1

     Threshold (ethr) on eigenvalues was too large:
     Diagonalizing with lowered threshold

     Davidson diagonalization with overlap
     ethr =  1.66E-05,  avg # of iterations =  3.8

     total cpu time spent up to now is        6.1 secs

     total energy              =    -135.43547272 Ry
     Harris-Foulkes estimate   =    -135.43686663 Ry
     estimated scf accuracy    <       0.00234299 Ry

     iteration #  2     ecut=    70.00 Ry     beta= 0.70
     Davidson diagonalization with overlap
     ethr =  1.67E-05,  avg # of iterations =  2.4

     total cpu time spent up to now is        8.0 secs

     total energy              =    -135.43594326 Ry
     Harris-Foulkes estimate   =    -135.43605908 Ry
     estimated scf accuracy    <       0.00020548 Ry

     iteration #  3     ecut=    70.00 Ry     beta= 0.70
     Davidson diagonalization with overlap
     ethr =  1.47E-06,  avg # of iterations =  2.3

     total cpu time spent up to now is        9.9 secs

     total energy              =    -135.43598566 Ry
     Harris-Foulkes estimate   =    -135.43598674 Ry
     estimated scf accuracy    <       0.00000995 Ry

     iteration #  4     ecut=    70.00 Ry     beta= 0.70
     Davidson diagonalization with overlap
     ethr =  7.10E-08,  avg # of iterations =  1.9

     total cpu time spent up to now is       11.6 secs

     total energy              =    -135.43598684 Ry
     Harris-Foulkes estimate   =    -135.43598678 Ry
     estimated scf accuracy    <       0.00000010 Ry

     iteration #  5     ecut=    70.00 Ry     beta= 0.70
     Davidson diagonalization with overlap
     ethr =  6.85E-10,  avg # of iterations =  2.1

     total cpu time spent up to now is       13.5 secs

     total energy              =    -135.43598687 Ry
     Harris-Foulkes estimate   =    -135.43598688 Ry
     estimated scf accuracy    <       0.00000001 Ry

     iteration #  6     ecut=    70.00 Ry     beta= 0.70
     Davidson diagonalization with overlap
     ethr =  8.62E-11,  avg # of iterations =  2.0

     total cpu time spent up to now is       15.4 secs

     End of self-consistent calculation

          k = 0.0000 0.0000 0.0000 (  1917 PWs)   bands (ev):

    -5.2302  -5.2302  -5.2302  -5.0714  -5.0714  -0.1806  19.6447  19.6447
    19.6447  21.9771  23.7526

          k =-0.1250 0.1250-0.1250 (  1946 PWs)   bands (ev):

    -5.2322  -5.2078  -5.2078  -5.0710  -5.0710   0.1341  16.7224  19.2716
    19.2716  21.5087  24.8325

          k =-0.2500 0.2500-0.2500 (  1949 PWs)   bands (ev):

    -5.2428  -5.1903  -5.1903  -5.0318  -5.0318   1.0774  12.7005  18.5475
    18.5475  21.1644  23.7903

          k =-0.3750 0.3750-0.3750 (  1925 PWs)   bands (ev):

    -5.2609  -5.2079  -5.2079  -4.9552  -4.9552   2.5587   9.2580  17.9470
    17.9470  21.1493  22.4272

          k = 0.5000-0.5000 0.5000 (  1946 PWs)   bands (ev):

    -5.2706  -5.2188  -5.2188  -4.9195  -4.9195   3.7021   7.4497  17.7185
    17.7185  21.3863  21.7301

          k = 0.0000 0.2500 0.0000 (  1949 PWs)   bands (ev):

    -5.2582  -5.1822  -5.1822  -5.1013  -5.0512   0.2387  17.6153  18.1397
    18.1397  20.8939  23.2945

          k =-0.1250 0.3750-0.1250 (  1944 PWs)   bands (ev):

    -5.2701  -5.1619  -5.1464  -5.0992  -5.0139   0.9727  14.0998  17.1905
    17.6664  20.9807  22.2319

          k =-0.2500 0.5000-0.2500 (  1952 PWs)   bands (ev):

    -5.2673  -5.1902  -5.1562  -5.0338  -4.9451   2.2889  10.5272  16.6092
    16.7208  20.2397  23.9144

          k = 0.6250-0.3750 0.6250 (  1943 PWs)   bands (ev):

    -5.2604  -5.2091  -5.1752  -4.9722  -4.9169   3.7434   8.0158  15.6625
    16.8547  20.1076  23.6945

          k = 0.5000-0.2500 0.5000 (  1940 PWs)   bands (ev):

    -5.2417  -5.2139  -5.1769  -4.9628  -4.9524   3.3223   8.6594  15.1886
    17.6070  20.6159  23.1777

          k = 0.3750-0.1250 0.3750 (  1943 PWs)   bands (ev):

    -5.2327  -5.1963  -5.1594  -5.0552  -4.9830   1.7933  11.6531  15.3334
    18.7956  21.7249  22.9279

          k = 0.2500 0.0000 0.2500 (  1943 PWs)   bands (ev):

    -5.2372  -5.1838  -5.1754  -5.0961  -5.0341   0.6590  15.0115  16.4499
    19.7135  22.3383  23.4898

          k = 0.0000 0.5000 0.0000 (  1964 PWs)   bands (ev):

    -5.3250  -5.1843  -5.0617  -5.0617  -5.0022   1.4934  14.3573  16.0013
    16.0013  19.6532  19.7170

          k =-0.1250 0.6250-0.1250 (  1941 PWs)   bands (ev):

    -5.3340  -5.2185  -5.0474  -5.0128  -4.9402   2.6048  11.7830  14.5540
    15.3672  18.9640  20.8938

          k = 0.7500-0.2500 0.7500 (  1941 PWs)   bands (ev):

    -5.3096  -5.1922  -5.0686  -5.0163  -4.9100   4.0328   9.3295  12.9533
    15.4237  18.8837  23.8982

          k = 0.6250-0.1250 0.6250 (  1944 PWs)   bands (ev):

    -5.2762  -5.1362  -5.0846  -5.0404  -4.9584   4.3427   8.9715  11.9926
    16.1853  19.3288  26.0345

          k = 0.5000 0.0000 0.5000 (  1947 PWs)   bands (ev):

    -5.2324  -5.1771  -5.0932  -5.0480  -4.9980   3.0341  10.7943  12.3169
    17.5054  20.2978  25.1425

          k = 0.0000 0.7500 0.0000 (  1956 PWs)   bands (ev):

    -5.3911  -5.2791  -4.9526  -4.9350  -4.9350   3.4922  10.7667  14.5165
    14.5165  17.8999  18.9070

          k = 0.8750-0.1250 0.8750 (  1951 PWs)   bands (ev):

    -5.3796  -5.2849  -4.9646  -4.9263  -4.8973   4.6910   9.3232  12.6665
    14.3702  18.0943  20.2789

          k = 0.7500 0.0000 0.7500 (  1926 PWs)   bands (ev):

    -5.3302  -5.2014  -4.9991  -4.9970  -4.9280   5.1251   9.4660  10.5673
    14.9663  18.5054  23.6071

          k = 0.0000-1.0000 0.0000 (  1964 PWs)   bands (ev):

    -5.4184  -5.3211  -4.9320  -4.8806  -4.8806   5.2172   8.4291  13.9926
    13.9926  17.3861  18.6629

          k =-0.2500 0.5000 0.0000 (  1944 PWs)   bands (ev):

    -5.2745  -5.1819  -5.1123  -5.0665  -4.9754   1.8983  12.6129  14.3879
    17.1335  21.2198  21.8101

          k = 0.6250-0.3750 0.8750 (  1944 PWs)   bands (ev):

    -5.2476  -5.2070  -5.1105  -5.0213  -4.9465   3.3041   9.9781  13.4540
    15.8522  21.0118  23.3839

          k = 0.5000-0.2500 0.7500 (  1918 PWs)   bands (ev):

    -5.2359  -5.2163  -5.0934  -5.0275  -4.9275   4.3170   8.4140  13.3564
    15.2657  20.9091  23.1957

          k = 0.7500-0.2500 1.0000 (  1944 PWs)   bands (ev):

    -5.3254  -5.2442  -5.0443  -4.9414  -4.9368   3.8016  10.5003  12.9966
    13.9552  20.0596  20.9815

          k = 0.6250-0.1250 0.8750 (  1930 PWs)   bands (ev):

    -5.2804  -5.2012  -5.0728  -5.0035  -4.9056   4.9092   9.5034  11.3819
    13.5909  20.6286  23.7931

          k = 0.5000 0.0000 0.7500 (  1930 PWs)   bands (ev):

    -5.2456  -5.1599  -5.1123  -5.0227  -4.9401   4.5357   9.9993  10.9121
    14.4074  21.2446  24.7714

          k =-0.2500-1.0000 0.0000 (  1940 PWs)   bands (ev):

    -5.3469  -5.2782  -4.9684  -4.9676  -4.8806   5.2732   8.9523  12.5072
    12.8344  19.6931  20.6930

          k =-0.5000-1.0000 0.0000 (  1912 PWs)   bands (ev):

    -5.2206  -5.1648  -5.1648  -5.0198  -4.8804   5.3331  10.4176  10.4176
    12.1084  23.0933  24.4571

     the Fermi energy is    11.9489 ev

!    total energy              =    -135.43598687 Ry
     Harris-Foulkes estimate   =    -135.43598687 Ry
     estimated scf accuracy    <          5.8E-10 Ry

     The total energy is the sum of the following terms:

     one-electron contribution =     -31.47726179 Ry
     hartree contribution      =      26.10365495 Ry
     xc contribution           =     -32.62509274 Ry
     ewald contribution        =     -97.43857717 Ry
     smearing contrib. (-TS)   =       0.00128987 Ry

     convergence has been achieved in   6 iterations

     Writing output data file Pb.save/

     init_run     :      1.41s CPU      1.48s WALL (       1 calls)
     electrons    :     12.61s CPU     13.16s WALL (       1 calls)

     Called by init_run:
     wfcinit      :      0.47s CPU      0.47s WALL (       1 calls)
     potinit      :      0.07s CPU      0.08s WALL (       1 calls)
     hinit0       :      0.77s CPU      0.77s WALL (       1 calls)

     Called by electrons:
     c_bands      :      9.51s CPU      9.54s WALL (       7 calls)
     sum_band     :      2.17s CPU      2.48s WALL (       7 calls)
     v_of_rho     :      0.39s CPU      0.41s WALL (       7 calls)
     newd         :      0.60s CPU      0.85s WALL (       7 calls)
     mix_rho      :      0.04s CPU      0.04s WALL (       7 calls)

     Called by c_bands:
     init_us_2    :      0.21s CPU      0.21s WALL (     435 calls)
     cegterg      :      9.02s CPU      9.04s WALL (     203 calls)

     Called by sum_band:
     sum_band:bec :      0.00s CPU      0.00s WALL (     203 calls)
     addusdens    :      0.64s CPU      0.94s WALL (       7 calls)

     Called by *egterg:
     h_psi        :      7.27s CPU      7.29s WALL (     774 calls)
     s_psi        :      0.36s CPU      0.37s WALL (     774 calls)
     g_psi        :      0.05s CPU      0.05s WALL (     542 calls)
     cdiaghg      :      0.16s CPU      0.16s WALL (     716 calls)

     Called by h_psi:
     h_psi:pot    :      7.24s CPU      7.26s WALL (     774 calls)
     h_psi:calbec :      0.39s CPU      0.39s WALL (     774 calls)
     vloc_psi     :      6.47s CPU      6.50s WALL (     774 calls)
     add_vuspsi   :      0.37s CPU      0.37s WALL (     774 calls)

     General routines
     calbec       :      0.53s CPU      0.53s WALL (     977 calls)
     fft          :      0.18s CPU      0.19s WALL (      90 calls)
     ffts         :      0.02s CPU      0.02s WALL (      14 calls)
     fftw         :      6.75s CPU      6.77s WALL (   14479 calls)
     interpolate  :      0.03s CPU      0.03s WALL (       7 calls)

     Parallel routines

     PWSCF        :     14.81s CPU     15.43s WALL


   This run was terminated on:  19:54:54  30Jun2021            

=------------------------------------------------------------------------------=
   JOB DONE.
=------------------------------------------------------------------------------=
