
     Program PWSCF v.6.4.1 starts on 30Jun2021 at 19:55:44 

     This program is part of the open-source Quantum ESPRESSO suite
     for quantum simulation of materials; please cite
         "P. Giannozzi et al., J. Phys.:Condens. Matter 21 395502 (2009);
         "P. Giannozzi et al., J. Phys.:Condens. Matter 29 465901 (2017);
          URL http://www.quantum-espresso.org", 
     in publications or presentations arising from this work. More details at
     http://www.quantum-espresso.org/quote

     Parallel version (MPI), running on     1 processors

     MPI processes distributed on     1 nodes
     Waiting for input...
     Reading input from standard input

     Current dimensions of program PWSCF are:
     Max number of different atomic species (ntypx) = 10
     Max number of k-points (npk) =  40000
     Max angular momentum in pseudopotentials (lmaxx) =  3
               file Pb.pbe-dn-rrkjus_psl.1.0.0.UPF: wavefunction(s)  6S 5D renormalized

     Subspace diagonalization in iterative solution of the eigenvalue problem:
     a serial algorithm will be used


     G-vector sticks info
     --------------------
     sticks:   dense  smooth     PW     G-vecs:    dense   smooth      PW
     Sum        1639     823    253                43895    15593    2637


     Title: 
     Lead                                                                       


     bravais-lattice index     =            2
     lattice parameter (alat)  =       9.2226  a.u.
     unit-cell volume          =     196.1075 (a.u.)^3
     number of atoms/cell      =            1
     number of atomic types    =            1
     number of electrons       =        14.00
     number of Kohn-Sham states=           11
     kinetic-energy cutoff     =      70.0000  Ry
     charge density cutoff     =     560.0000  Ry
     convergence threshold     =      1.0E-09
     mixing beta               =       0.7000
     number of iterations used =            8  plain     mixing
     Exchange-correlation      = PBE ( 1  4  3  4 0 0)

     celldm(1)=   9.222558  celldm(2)=   0.000000  celldm(3)=   0.000000
     celldm(4)=   0.000000  celldm(5)=   0.000000  celldm(6)=   0.000000

     crystal axes: (cart. coord. in units of alat)
               a(1) = (  -0.500000   0.000000   0.500000 )  
               a(2) = (   0.000000   0.500000   0.500000 )  
               a(3) = (  -0.500000   0.500000   0.000000 )  

     reciprocal axes: (cart. coord. in units 2 pi/alat)
               b(1) = ( -1.000000 -1.000000  1.000000 )  
               b(2) = (  1.000000  1.000000  1.000000 )  
               b(3) = ( -1.000000  1.000000 -1.000000 )  


     PseudoPot. # 1 for Pb read from file:
     /home/elena/qe-6.7/pseudo/Pb.pbe-dn-rrkjus_psl.1.0.0.UPF
     MD5 check sum: 1cf8f5e18580e6a90a35f98a53d336de
     Pseudo is Ultrasoft + core correction, Zval = 14.0
     Generated using "atomic" code by A. Dal Corso v.6.3
     Using radial grid of 1281 points,  6 beta functions with: 
                l(1) =   0
                l(2) =   0
                l(3) =   1
                l(4) =   1
                l(5) =   2
                l(6) =   2
     Q(r) pseudized with 0 coefficients 


     atomic species   valence    mass     pseudopotential
        Pb            14.00   207.20000     Pb( 1.00)

     48 Sym. Ops., with inversion, found



   Cartesian axes

     site n.     atom                  positions (alat units)
         1           Pb  tau(   1) = (   0.0000000   0.0000000   0.0000000  )

     number of k points=    29  Methfessel-Paxton smearing, width (Ry)=  0.0300
                       cart. coord. in units 2pi/alat
        k(    1) = (   0.0000000   0.0000000   0.0000000), wk =   0.0039062
        k(    2) = (  -0.1250000   0.1250000  -0.1250000), wk =   0.0312500
        k(    3) = (  -0.2500000   0.2500000  -0.2500000), wk =   0.0312500
        k(    4) = (  -0.3750000   0.3750000  -0.3750000), wk =   0.0312500
        k(    5) = (   0.5000000  -0.5000000   0.5000000), wk =   0.0156250
        k(    6) = (   0.0000000   0.2500000   0.0000000), wk =   0.0234375
        k(    7) = (  -0.1250000   0.3750000  -0.1250000), wk =   0.0937500
        k(    8) = (  -0.2500000   0.5000000  -0.2500000), wk =   0.0937500
        k(    9) = (   0.6250000  -0.3750000   0.6250000), wk =   0.0937500
        k(   10) = (   0.5000000  -0.2500000   0.5000000), wk =   0.0937500
        k(   11) = (   0.3750000  -0.1250000   0.3750000), wk =   0.0937500
        k(   12) = (   0.2500000   0.0000000   0.2500000), wk =   0.0468750
        k(   13) = (   0.0000000   0.5000000   0.0000000), wk =   0.0234375
        k(   14) = (  -0.1250000   0.6250000  -0.1250000), wk =   0.0937500
        k(   15) = (   0.7500000  -0.2500000   0.7500000), wk =   0.0937500
        k(   16) = (   0.6250000  -0.1250000   0.6250000), wk =   0.0937500
        k(   17) = (   0.5000000   0.0000000   0.5000000), wk =   0.0468750
        k(   18) = (   0.0000000   0.7500000   0.0000000), wk =   0.0234375
        k(   19) = (   0.8750000  -0.1250000   0.8750000), wk =   0.0937500
        k(   20) = (   0.7500000   0.0000000   0.7500000), wk =   0.0468750
        k(   21) = (   0.0000000  -1.0000000   0.0000000), wk =   0.0117188
        k(   22) = (  -0.2500000   0.5000000   0.0000000), wk =   0.0937500
        k(   23) = (   0.6250000  -0.3750000   0.8750000), wk =   0.1875000
        k(   24) = (   0.5000000  -0.2500000   0.7500000), wk =   0.0937500
        k(   25) = (   0.7500000  -0.2500000   1.0000000), wk =   0.0937500
        k(   26) = (   0.6250000  -0.1250000   0.8750000), wk =   0.1875000
        k(   27) = (   0.5000000   0.0000000   0.7500000), wk =   0.0937500
        k(   28) = (  -0.2500000  -1.0000000   0.0000000), wk =   0.0468750
        k(   29) = (  -0.5000000  -1.0000000   0.0000000), wk =   0.0234375

     Dense  grid:    43895 G-vectors     FFT dimensions: (  50,  50,  50)

     Smooth grid:    15593 G-vectors     FFT dimensions: (  36,  36,  36)

     Estimated max dynamical RAM per process >     164.96 MB

     Initial potential from superposition of free atoms

     starting charge   13.99765, renormalised to   14.00000
     Starting wfcs are    9 randomized atomic wfcs +    2 random wfcs

     total cpu time spent up to now is        2.3 secs

     Self-consistent Calculation

     iteration #  1     ecut=    70.00 Ry     beta= 0.70
     Davidson diagonalization with overlap
     ethr =  1.00E-02,  avg # of iterations =  4.1

     Threshold (ethr) on eigenvalues was too large:
     Diagonalizing with lowered threshold

     Davidson diagonalization with overlap
     ethr =  1.63E-05,  avg # of iterations =  3.9

     total cpu time spent up to now is        6.4 secs

     total energy              =    -135.43584613 Ry
     Harris-Foulkes estimate   =    -135.43721969 Ry
     estimated scf accuracy    <       0.00230460 Ry

     iteration #  2     ecut=    70.00 Ry     beta= 0.70
     Davidson diagonalization with overlap
     ethr =  1.65E-05,  avg # of iterations =  2.4

     total cpu time spent up to now is        8.4 secs

     total energy              =    -135.43630967 Ry
     Harris-Foulkes estimate   =    -135.43642372 Ry
     estimated scf accuracy    <       0.00020240 Ry

     iteration #  3     ecut=    70.00 Ry     beta= 0.70
     Davidson diagonalization with overlap
     ethr =  1.45E-06,  avg # of iterations =  2.3

     total cpu time spent up to now is       10.3 secs

     total energy              =    -135.43635142 Ry
     Harris-Foulkes estimate   =    -135.43635247 Ry
     estimated scf accuracy    <       0.00000975 Ry

     iteration #  4     ecut=    70.00 Ry     beta= 0.70
     Davidson diagonalization with overlap
     ethr =  6.97E-08,  avg # of iterations =  1.9

     total cpu time spent up to now is       11.9 secs

     total energy              =    -135.43635260 Ry
     Harris-Foulkes estimate   =    -135.43635253 Ry
     estimated scf accuracy    <       0.00000010 Ry

     iteration #  5     ecut=    70.00 Ry     beta= 0.70
     Davidson diagonalization with overlap
     ethr =  6.90E-10,  avg # of iterations =  2.1

     total cpu time spent up to now is       13.8 secs

     total energy              =    -135.43635262 Ry
     Harris-Foulkes estimate   =    -135.43635263 Ry
     estimated scf accuracy    <       0.00000001 Ry

     iteration #  6     ecut=    70.00 Ry     beta= 0.70
     Davidson diagonalization with overlap
     ethr =  8.53E-11,  avg # of iterations =  2.0

     total cpu time spent up to now is       15.7 secs

     End of self-consistent calculation

          k = 0.0000 0.0000 0.0000 (  1917 PWs)   bands (ev):

    -5.2275  -5.2275  -5.2275  -5.0686  -5.0686  -0.1797  19.6456  19.6456
    19.6456  21.9776  23.7535

          k =-0.1250 0.1250-0.1250 (  1946 PWs)   bands (ev):

    -5.2294  -5.2051  -5.2051  -5.0683  -5.0683   0.1350  16.7232  19.2724
    19.2724  21.5092  24.8332

          k =-0.2500 0.2500-0.2500 (  1949 PWs)   bands (ev):

    -5.2400  -5.1876  -5.1876  -5.0291  -5.0291   1.0784  12.7013  18.5484
    18.5484  21.1650  23.7909

          k =-0.3750 0.3750-0.3750 (  1925 PWs)   bands (ev):

    -5.2582  -5.2051  -5.2051  -4.9524  -4.9524   2.5597   9.2587  17.9479
    17.9479  21.1499  22.4279

          k = 0.5000-0.5000 0.5000 (  1946 PWs)   bands (ev):

    -5.2679  -5.2161  -5.2161  -4.9167  -4.9167   3.7033   7.4503  17.7193
    17.7193  21.3866  21.7311

          k = 0.0000 0.2500 0.0000 (  1949 PWs)   bands (ev):

    -5.2554  -5.1795  -5.1795  -5.0985  -5.0484   0.2396  17.6162  18.1405
    18.1405  20.8945  23.2950

          k =-0.1250 0.3750-0.1250 (  1944 PWs)   bands (ev):

    -5.2674  -5.1592  -5.1437  -5.0964  -5.0112   0.9736  14.1006  17.1913
    17.6673  20.9813  22.2324

          k =-0.2500 0.5000-0.2500 (  1952 PWs)   bands (ev):

    -5.2646  -5.1875  -5.1535  -5.0310  -4.9423   2.2899  10.5279  16.6100
    16.7216  20.2402  23.9152

          k = 0.6250-0.3750 0.6250 (  1943 PWs)   bands (ev):

    -5.2577  -5.2064  -5.1725  -4.9694  -4.9141   3.7445   8.0164  15.6634
    16.8555  20.1081  23.6953

          k = 0.5000-0.2500 0.5000 (  1940 PWs)   bands (ev):

    -5.2390  -5.2112  -5.1742  -4.9600  -4.9496   3.3234   8.6600  15.1894
    17.6079  20.6164  23.1786

          k = 0.3750-0.1250 0.3750 (  1943 PWs)   bands (ev):

    -5.2299  -5.1936  -5.1566  -5.0525  -4.9802   1.7943  11.6539  15.3342
    18.7965  21.7253  22.9287

          k = 0.2500 0.0000 0.2500 (  1943 PWs)   bands (ev):

    -5.2344  -5.1811  -5.1727  -5.0933  -5.0313   0.6600  15.0123  16.4507
    19.7145  22.3389  23.4902

          k = 0.0000 0.5000 0.0000 (  1964 PWs)   bands (ev):

    -5.3222  -5.1816  -5.0590  -5.0590  -4.9994   1.4943  14.3583  16.0021
    16.0021  19.6539  19.7175

          k =-0.1250 0.6250-0.1250 (  1941 PWs)   bands (ev):

    -5.3312  -5.2158  -5.0447  -5.0100  -4.9374   2.6058  11.7839  14.5548
    15.3680  18.9646  20.8944

          k = 0.7500-0.2500 0.7500 (  1941 PWs)   bands (ev):

    -5.3069  -5.1895  -5.0658  -5.0135  -4.9072   4.0339   9.3302  12.9541
    15.4244  18.8843  23.8988

          k = 0.6250-0.1250 0.6250 (  1944 PWs)   bands (ev):

    -5.2735  -5.1335  -5.0818  -5.0376  -4.9556   4.3438   8.9721  11.9933
    16.1861  19.3293  26.0352

          k = 0.5000 0.0000 0.5000 (  1947 PWs)   bands (ev):

    -5.2297  -5.1744  -5.0904  -5.0452  -4.9952   3.0352  10.7951  12.3176
    17.5062  20.2984  25.1431

          k = 0.0000 0.7500 0.0000 (  1956 PWs)   bands (ev):

    -5.3884  -5.2764  -4.9498  -4.9322  -4.9322   3.4932  10.7676  14.5172
    14.5172  17.9004  18.9077

          k = 0.8750-0.1250 0.8750 (  1951 PWs)   bands (ev):

    -5.3769  -5.2822  -4.9618  -4.9235  -4.8945   4.6922   9.3240  12.6672
    14.3709  18.0949  20.2796

          k = 0.7500 0.0000 0.7500 (  1926 PWs)   bands (ev):

    -5.3275  -5.1986  -4.9964  -4.9942  -4.9252   5.1264   9.4667  10.5680
    14.9670  18.5060  23.6078

          k = 0.0000-1.0000 0.0000 (  1964 PWs)   bands (ev):

    -5.4157  -5.3184  -4.9292  -4.8778  -4.8778   5.2184   8.4297  13.9933
    13.9933  17.3867  18.6637

          k =-0.2500 0.5000 0.0000 (  1944 PWs)   bands (ev):

    -5.2717  -5.1792  -5.1095  -5.0637  -4.9726   1.8993  12.6138  14.3887
    17.1343  21.2204  21.8108

          k = 0.6250-0.3750 0.8750 (  1944 PWs)   bands (ev):

    -5.2449  -5.2042  -5.1077  -5.0185  -4.9437   3.3052   9.9788  13.4548
    15.8530  21.0123  23.3846

          k = 0.5000-0.2500 0.7500 (  1918 PWs)   bands (ev):

    -5.2332  -5.2135  -5.0906  -5.0247  -4.9247   4.3182   8.4146  13.3573
    15.2665  20.9097  23.1965

          k = 0.7500-0.2500 1.0000 (  1944 PWs)   bands (ev):

    -5.3227  -5.2415  -5.0416  -4.9386  -4.9340   3.8027  10.5011  12.9974
    13.9559  20.0602  20.9822

          k = 0.6250-0.1250 0.8750 (  1930 PWs)   bands (ev):

    -5.2777  -5.1985  -5.0700  -5.0008  -4.9028   4.9104   9.5041  11.3826
    13.5916  20.6293  23.7938

          k = 0.5000 0.0000 0.7500 (  1930 PWs)   bands (ev):

    -5.2429  -5.1572  -5.1095  -5.0200  -4.9373   4.5369  10.0000  10.9129
    14.4081  21.2453  24.7720

          k =-0.2500-1.0000 0.0000 (  1940 PWs)   bands (ev):

    -5.3442  -5.2755  -4.9657  -4.9648  -4.8778   5.2745   8.9529  12.5079
    12.8350  19.6937  20.6937

          k =-0.5000-1.0000 0.0000 (  1912 PWs)   bands (ev):

    -5.2179  -5.1621  -5.1621  -5.0170  -4.8776   5.3344  10.4183  10.4183
    12.1090  23.0939  24.4577

     the Fermi energy is    11.8904 ev

!    total energy              =    -135.43635263 Ry
     Harris-Foulkes estimate   =    -135.43635263 Ry
     estimated scf accuracy    <          6.4E-10 Ry

     The total energy is the sum of the following terms:

     one-electron contribution =     -31.47833128 Ry
     hartree contribution      =      26.10604535 Ry
     xc contribution           =     -32.62543338 Ry
     ewald contribution        =     -97.43857717 Ry
     smearing contrib. (-TS)   =      -0.00005615 Ry

     convergence has been achieved in   6 iterations

     Writing output data file Pb.save/

     init_run     :      1.44s CPU      1.48s WALL (       1 calls)
     electrons    :     12.89s CPU     13.47s WALL (       1 calls)

     Called by init_run:
     wfcinit      :      0.48s CPU      0.48s WALL (       1 calls)
     potinit      :      0.08s CPU      0.08s WALL (       1 calls)
     hinit0       :      0.76s CPU      0.77s WALL (       1 calls)

     Called by electrons:
     c_bands      :      9.54s CPU      9.56s WALL (       7 calls)
     sum_band     :      2.23s CPU      2.53s WALL (       7 calls)
     v_of_rho     :      0.44s CPU      0.44s WALL (       7 calls)
     newd         :      0.75s CPU      1.04s WALL (       7 calls)
     mix_rho      :      0.04s CPU      0.04s WALL (       7 calls)

     Called by c_bands:
     init_us_2    :      0.22s CPU      0.22s WALL (     435 calls)
     cegterg      :      9.05s CPU      9.07s WALL (     203 calls)

     Called by sum_band:
     sum_band:bec :      0.00s CPU      0.00s WALL (     203 calls)
     addusdens    :      0.64s CPU      0.94s WALL (       7 calls)

     Called by *egterg:
     h_psi        :      7.31s CPU      7.32s WALL (     774 calls)
     s_psi        :      0.36s CPU      0.37s WALL (     774 calls)
     g_psi        :      0.05s CPU      0.05s WALL (     542 calls)
     cdiaghg      :      0.16s CPU      0.16s WALL (     716 calls)

     Called by h_psi:
     h_psi:pot    :      7.28s CPU      7.30s WALL (     774 calls)
     h_psi:calbec :      0.39s CPU      0.39s WALL (     774 calls)
     vloc_psi     :      6.52s CPU      6.53s WALL (     774 calls)
     add_vuspsi   :      0.37s CPU      0.37s WALL (     774 calls)

     General routines
     calbec       :      0.53s CPU      0.53s WALL (     977 calls)
     fft          :      0.20s CPU      0.20s WALL (      90 calls)
     ffts         :      0.02s CPU      0.02s WALL (      14 calls)
     fftw         :      6.83s CPU      6.85s WALL (   14439 calls)
     interpolate  :      0.03s CPU      0.03s WALL (       7 calls)

     Parallel routines

     PWSCF        :     15.13s CPU     15.76s WALL


   This run was terminated on:  19:56: 0  30Jun2021            

=------------------------------------------------------------------------------=
   JOB DONE.
=------------------------------------------------------------------------------=
