
     Program PWSCF v.6.4.1 starts on 30Jun2021 at 19:54:22 

     This program is part of the open-source Quantum ESPRESSO suite
     for quantum simulation of materials; please cite
         "P. Giannozzi et al., J. Phys.:Condens. Matter 21 395502 (2009);
         "P. Giannozzi et al., J. Phys.:Condens. Matter 29 465901 (2017);
          URL http://www.quantum-espresso.org", 
     in publications or presentations arising from this work. More details at
     http://www.quantum-espresso.org/quote

     Parallel version (MPI), running on     1 processors

     MPI processes distributed on     1 nodes
     Waiting for input...
     Reading input from standard input

     Current dimensions of program PWSCF are:
     Max number of different atomic species (ntypx) = 10
     Max number of k-points (npk) =  40000
     Max angular momentum in pseudopotentials (lmaxx) =  3
               file Pb.pbe-dn-rrkjus_psl.1.0.0.UPF: wavefunction(s)  6S 5D renormalized

     Subspace diagonalization in iterative solution of the eigenvalue problem:
     a serial algorithm will be used


     G-vector sticks info
     --------------------
     sticks:   dense  smooth     PW     G-vecs:    dense   smooth      PW
     Sum        1639     823    253                43895    15593    2637


     Title: 
     Lead                                                                       


     bravais-lattice index     =            2
     lattice parameter (alat)  =       9.2226  a.u.
     unit-cell volume          =     196.1075 (a.u.)^3
     number of atoms/cell      =            1
     number of atomic types    =            1
     number of electrons       =        14.00
     number of Kohn-Sham states=           11
     kinetic-energy cutoff     =      70.0000  Ry
     charge density cutoff     =     560.0000  Ry
     convergence threshold     =      1.0E-09
     mixing beta               =       0.7000
     number of iterations used =            8  plain     mixing
     Exchange-correlation      = PBE ( 1  4  3  4 0 0)

     celldm(1)=   9.222558  celldm(2)=   0.000000  celldm(3)=   0.000000
     celldm(4)=   0.000000  celldm(5)=   0.000000  celldm(6)=   0.000000

     crystal axes: (cart. coord. in units of alat)
               a(1) = (  -0.500000   0.000000   0.500000 )  
               a(2) = (   0.000000   0.500000   0.500000 )  
               a(3) = (  -0.500000   0.500000   0.000000 )  

     reciprocal axes: (cart. coord. in units 2 pi/alat)
               b(1) = ( -1.000000 -1.000000  1.000000 )  
               b(2) = (  1.000000  1.000000  1.000000 )  
               b(3) = ( -1.000000  1.000000 -1.000000 )  


     PseudoPot. # 1 for Pb read from file:
     /home/elena/qe-6.7/pseudo/Pb.pbe-dn-rrkjus_psl.1.0.0.UPF
     MD5 check sum: 1cf8f5e18580e6a90a35f98a53d336de
     Pseudo is Ultrasoft + core correction, Zval = 14.0
     Generated using "atomic" code by A. Dal Corso v.6.3
     Using radial grid of 1281 points,  6 beta functions with: 
                l(1) =   0
                l(2) =   0
                l(3) =   1
                l(4) =   1
                l(5) =   2
                l(6) =   2
     Q(r) pseudized with 0 coefficients 


     atomic species   valence    mass     pseudopotential
        Pb            14.00   207.20000     Pb( 1.00)

     48 Sym. Ops., with inversion, found



   Cartesian axes

     site n.     atom                  positions (alat units)
         1           Pb  tau(   1) = (   0.0000000   0.0000000   0.0000000  )

     number of k points=    29  Methfessel-Paxton smearing, width (Ry)=  0.0800
                       cart. coord. in units 2pi/alat
        k(    1) = (   0.0000000   0.0000000   0.0000000), wk =   0.0039062
        k(    2) = (  -0.1250000   0.1250000  -0.1250000), wk =   0.0312500
        k(    3) = (  -0.2500000   0.2500000  -0.2500000), wk =   0.0312500
        k(    4) = (  -0.3750000   0.3750000  -0.3750000), wk =   0.0312500
        k(    5) = (   0.5000000  -0.5000000   0.5000000), wk =   0.0156250
        k(    6) = (   0.0000000   0.2500000   0.0000000), wk =   0.0234375
        k(    7) = (  -0.1250000   0.3750000  -0.1250000), wk =   0.0937500
        k(    8) = (  -0.2500000   0.5000000  -0.2500000), wk =   0.0937500
        k(    9) = (   0.6250000  -0.3750000   0.6250000), wk =   0.0937500
        k(   10) = (   0.5000000  -0.2500000   0.5000000), wk =   0.0937500
        k(   11) = (   0.3750000  -0.1250000   0.3750000), wk =   0.0937500
        k(   12) = (   0.2500000   0.0000000   0.2500000), wk =   0.0468750
        k(   13) = (   0.0000000   0.5000000   0.0000000), wk =   0.0234375
        k(   14) = (  -0.1250000   0.6250000  -0.1250000), wk =   0.0937500
        k(   15) = (   0.7500000  -0.2500000   0.7500000), wk =   0.0937500
        k(   16) = (   0.6250000  -0.1250000   0.6250000), wk =   0.0937500
        k(   17) = (   0.5000000   0.0000000   0.5000000), wk =   0.0468750
        k(   18) = (   0.0000000   0.7500000   0.0000000), wk =   0.0234375
        k(   19) = (   0.8750000  -0.1250000   0.8750000), wk =   0.0937500
        k(   20) = (   0.7500000   0.0000000   0.7500000), wk =   0.0468750
        k(   21) = (   0.0000000  -1.0000000   0.0000000), wk =   0.0117188
        k(   22) = (  -0.2500000   0.5000000   0.0000000), wk =   0.0937500
        k(   23) = (   0.6250000  -0.3750000   0.8750000), wk =   0.1875000
        k(   24) = (   0.5000000  -0.2500000   0.7500000), wk =   0.0937500
        k(   25) = (   0.7500000  -0.2500000   1.0000000), wk =   0.0937500
        k(   26) = (   0.6250000  -0.1250000   0.8750000), wk =   0.1875000
        k(   27) = (   0.5000000   0.0000000   0.7500000), wk =   0.0937500
        k(   28) = (  -0.2500000  -1.0000000   0.0000000), wk =   0.0468750
        k(   29) = (  -0.5000000  -1.0000000   0.0000000), wk =   0.0234375

     Dense  grid:    43895 G-vectors     FFT dimensions: (  50,  50,  50)

     Smooth grid:    15593 G-vectors     FFT dimensions: (  36,  36,  36)

     Estimated max dynamical RAM per process >     164.96 MB

     Initial potential from superposition of free atoms

     starting charge   13.99765, renormalised to   14.00000
     Starting wfcs are    9 randomized atomic wfcs +    2 random wfcs

     total cpu time spent up to now is        2.3 secs

     Self-consistent Calculation

     iteration #  1     ecut=    70.00 Ry     beta= 0.70
     Davidson diagonalization with overlap
     ethr =  1.00E-02,  avg # of iterations =  4.1

     Threshold (ethr) on eigenvalues was too large:
     Diagonalizing with lowered threshold

     Davidson diagonalization with overlap
     ethr =  1.66E-05,  avg # of iterations =  3.8

     total cpu time spent up to now is        6.1 secs

     total energy              =    -135.43526604 Ry
     Harris-Foulkes estimate   =    -135.43666261 Ry
     estimated scf accuracy    <       0.00234228 Ry

     iteration #  2     ecut=    70.00 Ry     beta= 0.70
     Davidson diagonalization with overlap
     ethr =  1.67E-05,  avg # of iterations =  2.4

     total cpu time spent up to now is        8.1 secs

     total energy              =    -135.43573719 Ry
     Harris-Foulkes estimate   =    -135.43585325 Ry
     estimated scf accuracy    <       0.00020539 Ry

     iteration #  3     ecut=    70.00 Ry     beta= 0.70
     Davidson diagonalization with overlap
     ethr =  1.47E-06,  avg # of iterations =  2.3

     total cpu time spent up to now is        9.9 secs

     total energy              =    -135.43577964 Ry
     Harris-Foulkes estimate   =    -135.43578071 Ry
     estimated scf accuracy    <       0.00000988 Ry

     iteration #  4     ecut=    70.00 Ry     beta= 0.70
     Davidson diagonalization with overlap
     ethr =  7.06E-08,  avg # of iterations =  1.9

     total cpu time spent up to now is       11.6 secs

     total energy              =    -135.43578082 Ry
     Harris-Foulkes estimate   =    -135.43578076 Ry
     estimated scf accuracy    <       0.00000010 Ry

     iteration #  5     ecut=    70.00 Ry     beta= 0.70
     Davidson diagonalization with overlap
     ethr =  6.91E-10,  avg # of iterations =  2.1

     total cpu time spent up to now is       13.5 secs

     total energy              =    -135.43578085 Ry
     Harris-Foulkes estimate   =    -135.43578086 Ry
     estimated scf accuracy    <       0.00000001 Ry

     iteration #  6     ecut=    70.00 Ry     beta= 0.70
     Davidson diagonalization with overlap
     ethr =  8.82E-11,  avg # of iterations =  2.0

     total cpu time spent up to now is       15.5 secs

     End of self-consistent calculation

          k = 0.0000 0.0000 0.0000 (  1917 PWs)   bands (ev):

    -5.2305  -5.2305  -5.2305  -5.0716  -5.0716  -0.1807  19.6446  19.6446
    19.6446  21.9771  23.7523

          k =-0.1250 0.1250-0.1250 (  1946 PWs)   bands (ev):

    -5.2325  -5.2082  -5.2082  -5.0713  -5.0713   0.1340  16.7223  19.2715
    19.2715  21.5086  24.8323

          k =-0.2500 0.2500-0.2500 (  1949 PWs)   bands (ev):

    -5.2431  -5.1906  -5.1906  -5.0321  -5.0321   1.0773  12.7003  18.5474
    18.5474  21.1643  23.7902

          k =-0.3750 0.3750-0.3750 (  1925 PWs)   bands (ev):

    -5.2612  -5.2082  -5.2082  -4.9555  -4.9555   2.5586   9.2579  17.9469
    17.9469  21.1492  22.4271

          k = 0.5000-0.5000 0.5000 (  1946 PWs)   bands (ev):

    -5.2709  -5.2191  -5.2191  -4.9198  -4.9198   3.7019   7.4497  17.7183
    17.7183  21.3862  21.7301

          k = 0.0000 0.2500 0.0000 (  1949 PWs)   bands (ev):

    -5.2585  -5.1825  -5.1825  -5.1015  -5.0514   0.2386  17.6151  18.1396
    18.1396  20.8939  23.2944

          k =-0.1250 0.3750-0.1250 (  1944 PWs)   bands (ev):

    -5.2705  -5.1622  -5.1467  -5.0995  -5.0142   0.9726  14.0997  17.1904
    17.6663  20.9806  22.2318

          k =-0.2500 0.5000-0.2500 (  1952 PWs)   bands (ev):

    -5.2677  -5.1905  -5.1565  -5.0341  -4.9454   2.2888  10.5270  16.6090
    16.7207  20.2396  23.9144

          k = 0.6250-0.3750 0.6250 (  1943 PWs)   bands (ev):

    -5.2607  -5.2094  -5.1755  -4.9725  -4.9172   3.7432   8.0157  15.6624
    16.8546  20.1075  23.6944

          k = 0.5000-0.2500 0.5000 (  1940 PWs)   bands (ev):

    -5.2420  -5.2142  -5.1772  -4.9631  -4.9527   3.3221   8.6593  15.1885
    17.6069  20.6158  23.1777

          k = 0.3750-0.1250 0.3750 (  1943 PWs)   bands (ev):

    -5.2330  -5.1966  -5.1596  -5.0555  -4.9832   1.7932  11.6530  15.3333
    18.7954  21.7247  22.9278

          k = 0.2500 0.0000 0.2500 (  1943 PWs)   bands (ev):

    -5.2375  -5.1841  -5.1757  -5.0963  -5.0344   0.6589  15.0114  16.4498
    19.7134  22.3382  23.4896

          k = 0.0000 0.5000 0.0000 (  1964 PWs)   bands (ev):

    -5.3253  -5.1846  -5.0621  -5.0621  -5.0024   1.4933  14.3572  16.0012
    16.0012  19.6531  19.7169

          k =-0.1250 0.6250-0.1250 (  1941 PWs)   bands (ev):

    -5.3343  -5.2187  -5.0477  -5.0132  -4.9405   2.6047  11.7829  14.5539
    15.3671  18.9639  20.8937

          k = 0.7500-0.2500 0.7500 (  1941 PWs)   bands (ev):

    -5.3099  -5.1925  -5.0688  -5.0166  -4.9103   4.0327   9.3294  12.9532
    15.4236  18.8836  23.8981

          k = 0.6250-0.1250 0.6250 (  1944 PWs)   bands (ev):

    -5.2765  -5.1365  -5.0849  -5.0407  -4.9587   4.3425   8.9714  11.9925
    16.1852  19.3287  26.0345

          k = 0.5000 0.0000 0.5000 (  1947 PWs)   bands (ev):

    -5.2327  -5.1775  -5.0934  -5.0484  -4.9983   3.0340  10.7942  12.3168
    17.5053  20.2977  25.1425

          k = 0.0000 0.7500 0.0000 (  1956 PWs)   bands (ev):

    -5.3914  -5.2793  -4.9528  -4.9354  -4.9354   3.4921  10.7666  14.5164
    14.5164  17.8998  18.9069

          k = 0.8750-0.1250 0.8750 (  1951 PWs)   bands (ev):

    -5.3799  -5.2851  -4.9649  -4.9267  -4.8976   4.6909   9.3231  12.6664
    14.3701  18.0941  20.2788

          k = 0.7500 0.0000 0.7500 (  1926 PWs)   bands (ev):

    -5.3305  -5.2016  -4.9994  -4.9973  -4.9283   5.1249   9.4660  10.5672
    14.9662  18.5053  23.6070

          k = 0.0000-1.0000 0.0000 (  1964 PWs)   bands (ev):

    -5.4187  -5.3213  -4.9323  -4.8810  -4.8810   5.2170   8.4290  13.9925
    13.9925  17.3859  18.6629

          k =-0.2500 0.5000 0.0000 (  1944 PWs)   bands (ev):

    -5.2748  -5.1822  -5.1126  -5.0668  -4.9757   1.8982  12.6128  14.3878
    17.1334  21.2197  21.8101

          k = 0.6250-0.3750 0.8750 (  1944 PWs)   bands (ev):

    -5.2479  -5.2072  -5.1107  -5.0216  -4.9468   3.3040   9.9780  13.4539
    15.8521  21.0116  23.3838

          k = 0.5000-0.2500 0.7500 (  1918 PWs)   bands (ev):

    -5.2362  -5.2166  -5.0937  -5.0278  -4.9278   4.3169   8.4139  13.3563
    15.2656  20.9090  23.1956

          k = 0.7500-0.2500 1.0000 (  1944 PWs)   bands (ev):

    -5.3257  -5.2444  -5.0446  -4.9417  -4.9372   3.8014  10.5001  12.9966
    13.9551  20.0595  20.9815

          k = 0.6250-0.1250 0.8750 (  1930 PWs)   bands (ev):

    -5.2807  -5.2015  -5.0731  -5.0038  -4.9059   4.9090   9.5034  11.3818
    13.5908  20.6285  23.7930

          k = 0.5000 0.0000 0.7500 (  1930 PWs)   bands (ev):

    -5.2459  -5.1603  -5.1125  -5.0230  -4.9405   4.5356   9.9992  10.9121
    14.4073  21.2445  24.7713

          k =-0.2500-1.0000 0.0000 (  1940 PWs)   bands (ev):

    -5.3472  -5.2784  -4.9687  -4.9679  -4.8809   5.2731   8.9522  12.5071
    12.8343  19.6929  20.6929

          k =-0.5000-1.0000 0.0000 (  1912 PWs)   bands (ev):

    -5.2208  -5.1652  -5.1652  -5.0200  -4.8807   5.3330  10.4175  10.4175
    12.1082  23.0931  24.4570

     the Fermi energy is    11.9469 ev

!    total energy              =    -135.43578085 Ry
     Harris-Foulkes estimate   =    -135.43578085 Ry
     estimated scf accuracy    <          5.9E-10 Ry

     The total energy is the sum of the following terms:

     one-electron contribution =     -31.47736257 Ry
     hartree contribution      =      26.10339232 Ry
     xc contribution           =     -32.62505104 Ry
     ewald contribution        =     -97.43857717 Ry
     smearing contrib. (-TS)   =       0.00181760 Ry

     convergence has been achieved in   6 iterations

     Writing output data file Pb.save/

     init_run     :      1.41s CPU      1.48s WALL (       1 calls)
     electrons    :     12.78s CPU     13.30s WALL (       1 calls)

     Called by init_run:
     wfcinit      :      0.48s CPU      0.48s WALL (       1 calls)
     potinit      :      0.07s CPU      0.08s WALL (       1 calls)
     hinit0       :      0.76s CPU      0.77s WALL (       1 calls)

     Called by electrons:
     c_bands      :      9.66s CPU      9.67s WALL (       7 calls)
     sum_band     :      2.21s CPU      2.49s WALL (       7 calls)
     v_of_rho     :      0.39s CPU      0.40s WALL (       7 calls)
     newd         :      0.59s CPU      0.85s WALL (       7 calls)
     mix_rho      :      0.03s CPU      0.03s WALL (       7 calls)

     Called by c_bands:
     init_us_2    :      0.21s CPU      0.22s WALL (     435 calls)
     cegterg      :      9.15s CPU      9.17s WALL (     203 calls)

     Called by sum_band:
     sum_band:bec :      0.00s CPU      0.00s WALL (     203 calls)
     addusdens    :      0.66s CPU      0.94s WALL (       7 calls)

     Called by *egterg:
     h_psi        :      7.38s CPU      7.40s WALL (     774 calls)
     s_psi        :      0.37s CPU      0.37s WALL (     774 calls)
     g_psi        :      0.05s CPU      0.05s WALL (     542 calls)
     cdiaghg      :      0.16s CPU      0.16s WALL (     716 calls)

     Called by h_psi:
     h_psi:pot    :      7.36s CPU      7.37s WALL (     774 calls)
     h_psi:calbec :      0.40s CPU      0.40s WALL (     774 calls)
     vloc_psi     :      6.58s CPU      6.59s WALL (     774 calls)
     add_vuspsi   :      0.38s CPU      0.38s WALL (     774 calls)

     General routines
     calbec       :      0.53s CPU      0.53s WALL (     977 calls)
     fft          :      0.18s CPU      0.18s WALL (      90 calls)
     ffts         :      0.02s CPU      0.02s WALL (      14 calls)
     fftw         :      6.86s CPU      6.87s WALL (   14481 calls)
     interpolate  :      0.02s CPU      0.03s WALL (       7 calls)

     Parallel routines

     PWSCF        :     14.98s CPU     15.58s WALL


   This run was terminated on:  19:54:38  30Jun2021            

=------------------------------------------------------------------------------=
   JOB DONE.
=------------------------------------------------------------------------------=
