
     Program PWSCF v.6.4.1 starts on 30Jun2021 at 19:55:28 

     This program is part of the open-source Quantum ESPRESSO suite
     for quantum simulation of materials; please cite
         "P. Giannozzi et al., J. Phys.:Condens. Matter 21 395502 (2009);
         "P. Giannozzi et al., J. Phys.:Condens. Matter 29 465901 (2017);
          URL http://www.quantum-espresso.org", 
     in publications or presentations arising from this work. More details at
     http://www.quantum-espresso.org/quote

     Parallel version (MPI), running on     1 processors

     MPI processes distributed on     1 nodes
     Waiting for input...
     Reading input from standard input

     Current dimensions of program PWSCF are:
     Max number of different atomic species (ntypx) = 10
     Max number of k-points (npk) =  40000
     Max angular momentum in pseudopotentials (lmaxx) =  3
               file Pb.pbe-dn-rrkjus_psl.1.0.0.UPF: wavefunction(s)  6S 5D renormalized

     Subspace diagonalization in iterative solution of the eigenvalue problem:
     a serial algorithm will be used


     G-vector sticks info
     --------------------
     sticks:   dense  smooth     PW     G-vecs:    dense   smooth      PW
     Sum        1639     823    253                43895    15593    2637


     Title: 
     Lead                                                                       


     bravais-lattice index     =            2
     lattice parameter (alat)  =       9.2226  a.u.
     unit-cell volume          =     196.1075 (a.u.)^3
     number of atoms/cell      =            1
     number of atomic types    =            1
     number of electrons       =        14.00
     number of Kohn-Sham states=           11
     kinetic-energy cutoff     =      70.0000  Ry
     charge density cutoff     =     560.0000  Ry
     convergence threshold     =      1.0E-09
     mixing beta               =       0.7000
     number of iterations used =            8  plain     mixing
     Exchange-correlation      = PBE ( 1  4  3  4 0 0)

     celldm(1)=   9.222558  celldm(2)=   0.000000  celldm(3)=   0.000000
     celldm(4)=   0.000000  celldm(5)=   0.000000  celldm(6)=   0.000000

     crystal axes: (cart. coord. in units of alat)
               a(1) = (  -0.500000   0.000000   0.500000 )  
               a(2) = (   0.000000   0.500000   0.500000 )  
               a(3) = (  -0.500000   0.500000   0.000000 )  

     reciprocal axes: (cart. coord. in units 2 pi/alat)
               b(1) = ( -1.000000 -1.000000  1.000000 )  
               b(2) = (  1.000000  1.000000  1.000000 )  
               b(3) = ( -1.000000  1.000000 -1.000000 )  


     PseudoPot. # 1 for Pb read from file:
     /home/elena/qe-6.7/pseudo/Pb.pbe-dn-rrkjus_psl.1.0.0.UPF
     MD5 check sum: 1cf8f5e18580e6a90a35f98a53d336de
     Pseudo is Ultrasoft + core correction, Zval = 14.0
     Generated using "atomic" code by A. Dal Corso v.6.3
     Using radial grid of 1281 points,  6 beta functions with: 
                l(1) =   0
                l(2) =   0
                l(3) =   1
                l(4) =   1
                l(5) =   2
                l(6) =   2
     Q(r) pseudized with 0 coefficients 


     atomic species   valence    mass     pseudopotential
        Pb            14.00   207.20000     Pb( 1.00)

     48 Sym. Ops., with inversion, found



   Cartesian axes

     site n.     atom                  positions (alat units)
         1           Pb  tau(   1) = (   0.0000000   0.0000000   0.0000000  )

     number of k points=    29  Methfessel-Paxton smearing, width (Ry)=  0.0400
                       cart. coord. in units 2pi/alat
        k(    1) = (   0.0000000   0.0000000   0.0000000), wk =   0.0039062
        k(    2) = (  -0.1250000   0.1250000  -0.1250000), wk =   0.0312500
        k(    3) = (  -0.2500000   0.2500000  -0.2500000), wk =   0.0312500
        k(    4) = (  -0.3750000   0.3750000  -0.3750000), wk =   0.0312500
        k(    5) = (   0.5000000  -0.5000000   0.5000000), wk =   0.0156250
        k(    6) = (   0.0000000   0.2500000   0.0000000), wk =   0.0234375
        k(    7) = (  -0.1250000   0.3750000  -0.1250000), wk =   0.0937500
        k(    8) = (  -0.2500000   0.5000000  -0.2500000), wk =   0.0937500
        k(    9) = (   0.6250000  -0.3750000   0.6250000), wk =   0.0937500
        k(   10) = (   0.5000000  -0.2500000   0.5000000), wk =   0.0937500
        k(   11) = (   0.3750000  -0.1250000   0.3750000), wk =   0.0937500
        k(   12) = (   0.2500000   0.0000000   0.2500000), wk =   0.0468750
        k(   13) = (   0.0000000   0.5000000   0.0000000), wk =   0.0234375
        k(   14) = (  -0.1250000   0.6250000  -0.1250000), wk =   0.0937500
        k(   15) = (   0.7500000  -0.2500000   0.7500000), wk =   0.0937500
        k(   16) = (   0.6250000  -0.1250000   0.6250000), wk =   0.0937500
        k(   17) = (   0.5000000   0.0000000   0.5000000), wk =   0.0468750
        k(   18) = (   0.0000000   0.7500000   0.0000000), wk =   0.0234375
        k(   19) = (   0.8750000  -0.1250000   0.8750000), wk =   0.0937500
        k(   20) = (   0.7500000   0.0000000   0.7500000), wk =   0.0468750
        k(   21) = (   0.0000000  -1.0000000   0.0000000), wk =   0.0117188
        k(   22) = (  -0.2500000   0.5000000   0.0000000), wk =   0.0937500
        k(   23) = (   0.6250000  -0.3750000   0.8750000), wk =   0.1875000
        k(   24) = (   0.5000000  -0.2500000   0.7500000), wk =   0.0937500
        k(   25) = (   0.7500000  -0.2500000   1.0000000), wk =   0.0937500
        k(   26) = (   0.6250000  -0.1250000   0.8750000), wk =   0.1875000
        k(   27) = (   0.5000000   0.0000000   0.7500000), wk =   0.0937500
        k(   28) = (  -0.2500000  -1.0000000   0.0000000), wk =   0.0468750
        k(   29) = (  -0.5000000  -1.0000000   0.0000000), wk =   0.0234375

     Dense  grid:    43895 G-vectors     FFT dimensions: (  50,  50,  50)

     Smooth grid:    15593 G-vectors     FFT dimensions: (  36,  36,  36)

     Estimated max dynamical RAM per process >     164.96 MB

     Initial potential from superposition of free atoms

     starting charge   13.99765, renormalised to   14.00000
     Starting wfcs are    9 randomized atomic wfcs +    2 random wfcs

     total cpu time spent up to now is        2.2 secs

     Self-consistent Calculation

     iteration #  1     ecut=    70.00 Ry     beta= 0.70
     Davidson diagonalization with overlap
     ethr =  1.00E-02,  avg # of iterations =  4.1

     Threshold (ethr) on eigenvalues was too large:
     Diagonalizing with lowered threshold

     Davidson diagonalization with overlap
     ethr =  1.65E-05,  avg # of iterations =  3.8

     total cpu time spent up to now is        6.1 secs

     total energy              =    -135.43582775 Ry
     Harris-Foulkes estimate   =    -135.43721051 Ry
     estimated scf accuracy    <       0.00233020 Ry

     iteration #  2     ecut=    70.00 Ry     beta= 0.70
     Davidson diagonalization with overlap
     ethr =  1.66E-05,  avg # of iterations =  2.4

     total cpu time spent up to now is        8.0 secs

     total energy              =    -135.43629481 Ry
     Harris-Foulkes estimate   =    -135.43640964 Ry
     estimated scf accuracy    <       0.00020460 Ry

     iteration #  3     ecut=    70.00 Ry     beta= 0.70
     Davidson diagonalization with overlap
     ethr =  1.46E-06,  avg # of iterations =  2.3

     total cpu time spent up to now is        9.9 secs

     total energy              =    -135.43633692 Ry
     Harris-Foulkes estimate   =    -135.43633798 Ry
     estimated scf accuracy    <       0.00000996 Ry

     iteration #  4     ecut=    70.00 Ry     beta= 0.70
     Davidson diagonalization with overlap
     ethr =  7.11E-08,  avg # of iterations =  1.9

     total cpu time spent up to now is       11.8 secs

     total energy              =    -135.43633811 Ry
     Harris-Foulkes estimate   =    -135.43633805 Ry
     estimated scf accuracy    <       0.00000010 Ry

     iteration #  5     ecut=    70.00 Ry     beta= 0.70
     Davidson diagonalization with overlap
     ethr =  6.93E-10,  avg # of iterations =  2.1

     total cpu time spent up to now is       13.8 secs

     total energy              =    -135.43633814 Ry
     Harris-Foulkes estimate   =    -135.43633815 Ry
     estimated scf accuracy    <       0.00000001 Ry

     iteration #  6     ecut=    70.00 Ry     beta= 0.70
     Davidson diagonalization with overlap
     ethr =  8.40E-11,  avg # of iterations =  2.0

     total cpu time spent up to now is       15.7 secs

     End of self-consistent calculation

          k = 0.0000 0.0000 0.0000 (  1917 PWs)   bands (ev):

    -5.2288  -5.2288  -5.2288  -5.0700  -5.0700  -0.1801  19.6452  19.6452
    19.6452  21.9773  23.7533

          k =-0.1250 0.1250-0.1250 (  1946 PWs)   bands (ev):

    -5.2307  -5.2064  -5.2064  -5.0697  -5.0697   0.1346  16.7228  19.2721
    19.2721  21.5089  24.8331

          k =-0.2500 0.2500-0.2500 (  1949 PWs)   bands (ev):

    -5.2414  -5.1889  -5.1889  -5.0305  -5.0305   1.0779  12.7009  18.5480
    18.5480  21.1647  23.7906

          k =-0.3750 0.3750-0.3750 (  1925 PWs)   bands (ev):

    -5.2595  -5.2065  -5.2065  -4.9538  -4.9538   2.5593   9.2584  17.9475
    17.9475  21.1497  22.4276

          k = 0.5000-0.5000 0.5000 (  1946 PWs)   bands (ev):

    -5.2692  -5.2174  -5.2174  -4.9181  -4.9181   3.7027   7.4500  17.7189
    17.7189  21.3866  21.7306

          k = 0.0000 0.2500 0.0000 (  1949 PWs)   bands (ev):

    -5.2567  -5.1808  -5.1808  -5.1000  -5.0499   0.2392  17.6158  18.1402
    18.1402  20.8942  23.2949

          k =-0.1250 0.3750-0.1250 (  1944 PWs)   bands (ev):

    -5.2687  -5.1606  -5.1450  -5.0978  -5.0126   0.9732  14.1003  17.1909
    17.6669  20.9810  22.2322

          k =-0.2500 0.5000-0.2500 (  1952 PWs)   bands (ev):

    -5.2659  -5.1889  -5.1548  -5.0324  -4.9437   2.2894  10.5276  16.6096
    16.7213  20.2401  23.9148

          k = 0.6250-0.3750 0.6250 (  1943 PWs)   bands (ev):

    -5.2590  -5.2078  -5.1739  -4.9708  -4.9155   3.7440   8.0161  15.6630
    16.8551  20.1079  23.6949

          k = 0.5000-0.2500 0.5000 (  1940 PWs)   bands (ev):

    -5.2403  -5.2126  -5.1756  -4.9614  -4.9510   3.3228   8.6597  15.1890
    17.6075  20.6162  23.1781

          k = 0.3750-0.1250 0.3750 (  1943 PWs)   bands (ev):

    -5.2312  -5.1950  -5.1580  -5.0538  -4.9816   1.7938  11.6535  15.3338
    18.7961  21.7252  22.9282

          k = 0.2500 0.0000 0.2500 (  1943 PWs)   bands (ev):

    -5.2357  -5.1824  -5.1740  -5.0948  -5.0328   0.6595  15.0120  16.4503
    19.7141  22.3385  23.4901

          k = 0.0000 0.5000 0.0000 (  1964 PWs)   bands (ev):

    -5.3235  -5.1830  -5.0603  -5.0603  -5.0008   1.4939  14.3579  16.0017
    16.0017  19.6534  19.7174

          k =-0.1250 0.6250-0.1250 (  1941 PWs)   bands (ev):

    -5.3325  -5.2172  -5.0460  -5.0114  -4.9388   2.6054  11.7835  14.5545
    15.3676  18.9644  20.8941

          k = 0.7500-0.2500 0.7500 (  1941 PWs)   bands (ev):

    -5.3082  -5.1909  -5.0672  -5.0149  -4.9086   4.0334   9.3299  12.9537
    15.4241  18.8841  23.8985

          k = 0.6250-0.1250 0.6250 (  1944 PWs)   bands (ev):

    -5.2749  -5.1348  -5.0833  -5.0390  -4.9570   4.3433   8.9718  11.9930
    16.1857  19.3291  26.0349

          k = 0.5000 0.0000 0.5000 (  1947 PWs)   bands (ev):

    -5.2311  -5.1757  -5.0918  -5.0466  -4.9966   3.0347  10.7948  12.3173
    17.5058  20.2982  25.1427

          k = 0.0000 0.7500 0.0000 (  1956 PWs)   bands (ev):

    -5.3897  -5.2778  -4.9513  -4.9336  -4.9336   3.4928  10.7672  14.5168
    14.5168  17.9003  18.9073

          k = 0.8750-0.1250 0.8750 (  1951 PWs)   bands (ev):

    -5.3782  -5.2836  -4.9633  -4.9249  -4.8958   4.6917   9.3236  12.6669
    14.3706  18.0947  20.2792

          k = 0.7500 0.0000 0.7500 (  1926 PWs)   bands (ev):

    -5.3288  -5.2000  -4.9978  -4.9955  -4.9265   5.1258   9.4664  10.5677
    14.9667  18.5058  23.6074

          k = 0.0000-1.0000 0.0000 (  1964 PWs)   bands (ev):

    -5.4170  -5.3198  -4.9307  -4.8792  -4.8792   5.2179   8.4294  13.9930
    13.9930  17.3865  18.6632

          k =-0.2500 0.5000 0.0000 (  1944 PWs)   bands (ev):

    -5.2730  -5.1806  -5.1109  -5.0650  -4.9740   1.8988  12.6134  14.3883
    17.1340  21.2202  21.8104

          k = 0.6250-0.3750 0.8750 (  1944 PWs)   bands (ev):

    -5.2462  -5.2056  -5.1091  -5.0199  -4.9451   3.3047   9.9785  13.4544
    15.8526  21.0121  23.3842

          k = 0.5000-0.2500 0.7500 (  1918 PWs)   bands (ev):

    -5.2346  -5.2148  -5.0920  -5.0261  -4.9260   4.3177   8.4143  13.3569
    15.2661  20.9095  23.1961

          k = 0.7500-0.2500 1.0000 (  1944 PWs)   bands (ev):

    -5.3240  -5.2429  -5.0430  -4.9400  -4.9354   3.8022  10.5007  12.9970
    13.9556  20.0601  20.9818

          k = 0.6250-0.1250 0.8750 (  1930 PWs)   bands (ev):

    -5.2791  -5.1998  -5.0714  -5.0022  -4.9041   4.9098   9.5038  11.3823
    13.5913  20.6290  23.7935

          k = 0.5000 0.0000 0.7500 (  1930 PWs)   bands (ev):

    -5.2443  -5.1585  -5.1109  -5.0214  -4.9387   4.5364   9.9997  10.9125
    14.4078  21.2450  24.7716

          k =-0.2500-1.0000 0.0000 (  1940 PWs)   bands (ev):

    -5.3455  -5.2769  -4.9671  -4.9661  -4.8791   5.2739   8.9526  12.5075
    12.8348  19.6935  20.6933

          k =-0.5000-1.0000 0.0000 (  1912 PWs)   bands (ev):

    -5.2193  -5.1634  -5.1634  -5.0184  -4.8789   5.3338  10.4180  10.4180
    12.1087  23.0938  24.4574

     the Fermi energy is    11.9172 ev

!    total energy              =    -135.43633814 Ry
     Harris-Foulkes estimate   =    -135.43633814 Ry
     estimated scf accuracy    <          6.1E-10 Ry

     The total energy is the sum of the following terms:

     one-electron contribution =     -31.47754157 Ry
     hartree contribution      =      26.10486325 Ry
     xc contribution           =     -32.62527162 Ry
     ewald contribution        =     -97.43857717 Ry
     smearing contrib. (-TS)   =       0.00018897 Ry

     convergence has been achieved in   6 iterations

     Writing output data file Pb.save/

     init_run     :      1.42s CPU      1.47s WALL (       1 calls)
     electrons    :     12.87s CPU     13.52s WALL (       1 calls)

     Called by init_run:
     wfcinit      :      0.47s CPU      0.47s WALL (       1 calls)
     potinit      :      0.08s CPU      0.08s WALL (       1 calls)
     hinit0       :      0.76s CPU      0.77s WALL (       1 calls)

     Called by electrons:
     c_bands      :      9.59s CPU      9.64s WALL (       7 calls)
     sum_band     :      2.28s CPU      2.62s WALL (       7 calls)
     v_of_rho     :      0.44s CPU      0.44s WALL (       7 calls)
     newd         :      0.62s CPU      0.92s WALL (       7 calls)
     mix_rho      :      0.04s CPU      0.04s WALL (       7 calls)

     Called by c_bands:
     init_us_2    :      0.22s CPU      0.22s WALL (     435 calls)
     cegterg      :      9.10s CPU      9.14s WALL (     203 calls)

     Called by sum_band:
     sum_band:bec :      0.00s CPU      0.00s WALL (     203 calls)
     addusdens    :      0.64s CPU      0.97s WALL (       7 calls)

     Called by *egterg:
     h_psi        :      7.35s CPU      7.38s WALL (     773 calls)
     s_psi        :      0.37s CPU      0.37s WALL (     773 calls)
     g_psi        :      0.05s CPU      0.05s WALL (     541 calls)
     cdiaghg      :      0.16s CPU      0.16s WALL (     715 calls)

     Called by h_psi:
     h_psi:pot    :      7.32s CPU      7.36s WALL (     773 calls)
     h_psi:calbec :      0.40s CPU      0.40s WALL (     773 calls)
     vloc_psi     :      6.55s CPU      6.59s WALL (     773 calls)
     add_vuspsi   :      0.37s CPU      0.37s WALL (     773 calls)

     General routines
     calbec       :      0.54s CPU      0.54s WALL (     976 calls)
     fft          :      0.21s CPU      0.21s WALL (      90 calls)
     ffts         :      0.02s CPU      0.02s WALL (      14 calls)
     fftw         :      6.90s CPU      6.93s WALL (   14441 calls)
     interpolate  :      0.03s CPU      0.03s WALL (       7 calls)

     Parallel routines

     PWSCF        :     15.03s CPU     15.73s WALL


   This run was terminated on:  19:55:43  30Jun2021            

=------------------------------------------------------------------------------=
   JOB DONE.
=------------------------------------------------------------------------------=
